# Force coefficients
# liftDir    : (0.000000e+00 1.000000e+00 0.000000e+00)
# dragDir    : (1.000000e+00 0.000000e+00 0.000000e+00)
# pitchAxis  : (0.000000e+00 0.000000e+00 1.000000e+00)
# magUInf    : 1.000000e+00
# lRef       : 1.000000e+00
# Aref       : 2.000000e+00
# CofR       : (0.000000e+00 0.000000e+00 0.000000e+00)
# Time       	Cm           	Cd           	Cl           	Cl(f)        	Cl(r)        	Cm	Cd	Cl	Cl(f)	Cl(r)
2.500000e-01	7.215266e-04	1.506133e+00	5.771184e-03	3.607119e-03	2.164065e-03
5.000000e-01	3.054332e-04	1.513084e+00	-6.183682e-04	-3.750899e-06	-6.146173e-04
7.500000e-01	1.978790e-04	1.383044e+00	-5.048209e-04	-5.453149e-05	-4.502895e-04
1.000000e+00	1.483391e-04	1.343884e+00	-5.162139e-04	-1.097679e-04	-4.064460e-04
1.250000e+00	1.159946e-04	1.342526e+00	-5.472176e-04	-1.576142e-04	-3.896034e-04
1.500000e+00	1.059684e-04	1.358212e+00	-6.026501e-04	-1.953566e-04	-4.072935e-04
1.750000e+00	9.421211e-05	1.380269e+00	-6.101963e-04	-2.108861e-04	-3.993103e-04
2.000000e+00	8.345600e-05	1.403435e+00	-6.222886e-04	-2.276883e-04	-3.946003e-04
2.250000e+00	7.443187e-05	1.424690e+00	-6.321375e-04	-2.416369e-04	-3.905006e-04
2.500000e+00	6.684921e-05	1.442449e+00	-6.414854e-04	-2.538935e-04	-3.875919e-04
2.750000e+00	6.041986e-05	1.456045e+00	-6.423740e-04	-2.607672e-04	-3.816069e-04
3.000000e+00	5.482217e-05	1.465569e+00	-6.473958e-04	-2.688757e-04	-3.785201e-04
3.250000e+00	5.004189e-05	1.471208e+00	-6.457652e-04	-2.728407e-04	-3.729245e-04
3.500000e+00	4.637926e-05	1.473518e+00	-6.347158e-04	-2.709787e-04	-3.637372e-04
3.750000e+00	3.987379e-05	1.472718e+00	-6.354652e-04	-2.778588e-04	-3.576064e-04
4.000000e+00	3.354614e-05	1.469740e+00	-6.354180e-04	-2.841628e-04	-3.512551e-04
4.250000e+00	2.886014e-05	1.465155e+00	-6.275554e-04	-2.849176e-04	-3.426379e-04
4.500000e+00	2.532344e-05	1.459235e+00	-6.155797e-04	-2.824664e-04	-3.331133e-04
4.750000e+00	2.206980e-05	1.452401e+00	-6.004004e-04	-2.781304e-04	-3.222700e-04
5.000000e+00	1.899630e-05	1.444976e+00	-5.813318e-04	-2.716696e-04	-3.096622e-04
5.250000e+00	1.609877e-05	1.437216e+00	-5.600272e-04	-2.639149e-04	-2.961124e-04
5.500000e+00	1.334499e-05	1.429323e+00	-5.356576e-04	-2.544838e-04	-2.811738e-04
5.750000e+00	1.079211e-05	1.421439e+00	-5.096706e-04	-2.440432e-04	-2.656274e-04
6.000000e+00	8.465170e-06	1.413667e+00	-4.791591e-04	-2.311144e-04	-2.480447e-04
6.250000e+00	6.583415e-06	1.406085e+00	-4.378393e-04	-2.123363e-04	-2.255031e-04
6.500000e+00	8.133695e-06	1.398754e+00	-3.695651e-04	-1.766488e-04	-1.929162e-04
6.750000e+00	8.738478e-06	1.391609e+00	-3.143938e-04	-1.484584e-04	-1.659354e-04
7.000000e+00	7.981806e-06	1.384736e+00	-2.650535e-04	-1.245449e-04	-1.405085e-04
7.250000e+00	6.850500e-06	1.378137e+00	-2.172713e-04	-1.017852e-04	-1.154862e-04
7.500000e+00	5.643001e-06	1.371808e+00	-1.710858e-04	-7.989988e-05	-9.118588e-05
7.750000e+00	4.471007e-06	1.365740e+00	-1.264889e-04	-5.877343e-05	-6.771545e-05
8.000000e+00	3.390607e-06	1.359927e+00	-8.391501e-05	-3.856690e-05	-4.534811e-05
8.250000e+00	2.425796e-06	1.354350e+00	-4.248118e-05	-1.881479e-05	-2.366639e-05
8.500000e+00	1.592148e-06	1.349018e+00	-8.750828e-08	1.548394e-06	-1.635902e-06
8.750000e+00	8.962412e-07	1.343878e+00	3.767483e-05	1.973366e-05	1.794117e-05
9.000000e+00	3.642966e-07	1.338937e+00	7.468274e-05	3.770566e-05	3.697707e-05
9.250000e+00	2.055845e-09	1.334185e+00	1.077864e-04	5.389526e-05	5.389114e-05
9.500000e+00	-1.824690e-07	1.329610e+00	1.384845e-04	6.905980e-05	6.942474e-05
9.750000e+00	-1.795292e-07	1.325205e+00	1.616933e-04	8.066712e-05	8.102618e-05
1.000000e+01	4.233115e-09	1.320957e+00	1.836156e-04	9.181203e-05	9.180356e-05
1.025000e+01	9.044396e-07	1.316875e+00	2.078487e-04	1.048288e-04	1.030199e-04
1.050000e+01	1.626100e-06	1.312919e+00	2.193144e-04	1.112833e-04	1.080311e-04
1.075000e+01	2.384229e-06	1.309100e+00	2.222105e-04	1.134895e-04	1.087210e-04
1.100000e+01	3.225526e-06	1.305408e+00	2.193871e-04	1.129191e-04	1.064680e-04
1.125000e+01	4.161445e-06	1.301838e+00	2.080766e-04	1.081998e-04	9.987686e-05
1.150000e+01	5.164812e-06	1.298388e+00	1.909122e-04	1.006209e-04	9.029130e-05
1.175000e+01	6.215287e-06	1.295049e+00	1.670997e-04	8.976516e-05	7.733459e-05
1.200000e+01	7.605961e-06	1.291834e+00	1.466647e-04	8.093832e-05	6.572640e-05
1.225000e+01	8.954663e-06	1.288707e+00	1.154803e-04	6.669483e-05	4.878551e-05
1.250000e+01	1.017230e-05	1.285678e+00	8.070790e-05	5.052624e-05	3.018165e-05
1.275000e+01	1.130489e-05	1.282742e+00	4.121185e-05	3.191082e-05	9.301032e-06
1.300000e+01	1.235201e-05	1.279897e+00	-1.520243e-06	1.159189e-05	-1.311213e-05
1.325000e+01	1.330890e-05	1.277138e+00	-4.719837e-05	-1.029028e-05	-3.690809e-05
1.350000e+01	1.416274e-05	1.274463e+00	-9.353301e-05	-3.260376e-05	-6.092925e-05
1.375000e+01	1.490270e-05	1.271868e+00	-1.438943e-04	-5.704444e-05	-8.684984e-05
1.400000e+01	1.551099e-05	1.269352e+00	-1.945074e-04	-8.174273e-05	-1.127647e-04
1.425000e+01	1.598216e-05	1.266908e+00	-2.448693e-04	-1.064525e-04	-1.384168e-04
1.450000e+01	1.630269e-05	1.264537e+00	-2.953819e-04	-1.313882e-04	-1.639936e-04
1.475000e+01	1.646649e-05	1.262235e+00	-3.474604e-04	-1.572637e-04	-1.901967e-04
1.500000e+01	1.645559e-05	1.260001e+00	-3.952523e-04	-1.811706e-04	-2.140818e-04
1.525000e+01	1.627252e-05	1.257831e+00	-4.423869e-04	-2.049209e-04	-2.374660e-04
1.550000e+01	1.591706e-05	1.255723e+00	-4.871145e-04	-2.276402e-04	-2.594743e-04
1.575000e+01	1.538511e-05	1.253676e+00	-5.299812e-04	-2.496055e-04	-2.803757e-04
1.600000e+01	1.467456e-05	1.251686e+00	-5.699612e-04	-2.703060e-04	-2.996552e-04
1.625000e+01	1.378468e-05	1.249753e+00	-6.031674e-04	-2.877990e-04	-3.153684e-04
1.650000e+01	1.272459e-05	1.247874e+00	-6.339706e-04	-3.042607e-04	-3.297099e-04
1.675000e+01	1.149926e-05	1.246047e+00	-6.600894e-04	-3.185454e-04	-3.415439e-04
1.700000e+01	1.012508e-05	1.244270e+00	-6.805536e-04	-3.301517e-04	-3.504019e-04
1.725000e+01	8.606713e-06	1.242542e+00	-6.953953e-04	-3.390909e-04	-3.563044e-04
1.750000e+01	6.964407e-06	1.240857e+00	-7.060819e-04	-3.460765e-04	-3.600053e-04
1.775000e+01	5.204737e-06	1.239224e+00	-7.071136e-04	-3.483521e-04	-3.587615e-04
1.800000e+01	3.351362e-06	1.237632e+00	-7.021335e-04	-3.477154e-04	-3.544181e-04
1.825000e+01	1.418933e-06	1.236081e+00	-6.908785e-04	-3.440203e-04	-3.468582e-04
1.850000e+01	-5.682733e-07	1.234570e+00	-6.758072e-04	-3.384719e-04	-3.373353e-04
1.875000e+01	-2.597504e-06	1.233106e+00	-6.484443e-04	-3.268197e-04	-3.216247e-04
1.900000e+01	-4.635865e-06	1.231671e+00	-6.178084e-04	-3.135401e-04	-3.042684e-04
1.925000e+01	-6.663435e-06	1.230266e+00	-5.822187e-04	-2.977728e-04	-2.844459e-04
1.950000e+01	-8.656857e-06	1.228898e+00	-5.383940e-04	-2.778539e-04	-2.605401e-04
1.975000e+01	-1.059121e-05	1.227560e+00	-4.882673e-04	-2.547249e-04	-2.335425e-04
2.000000e+01	-1.244507e-05	1.226256e+00	-4.311059e-04	-2.279980e-04	-2.031079e-04
2.025000e+01	-1.418551e-05	1.224962e+00	-3.722390e-04	-2.003050e-04	-1.719340e-04
2.050000e+01	-1.580539e-05	1.223703e+00	-3.044605e-04	-1.680357e-04	-1.364249e-04
2.075000e+01	-1.727665e-05	1.222451e+00	-2.353317e-04	-1.349425e-04	-1.003892e-04
2.100000e+01	-1.859090e-05	1.221223e+00	-1.581355e-04	-9.765863e-05	-6.047684e-05
2.125000e+01	-1.972574e-05	1.219998e+00	-8.119241e-05	-6.032195e-05	-2.087047e-05
2.150000e+01	-2.068109e-05	1.218792e+00	2.212621e-06	-1.957478e-05	2.178740e-05
2.175000e+01	-2.144432e-05	1.217584e+00	8.501269e-05	2.106203e-05	6.395066e-05
2.200000e+01	-2.201229e-05	1.216388e+00	1.711072e-04	6.354131e-05	1.075659e-04
2.225000e+01	-2.237756e-05	1.215199e+00	2.580903e-04	1.066676e-04	1.514227e-04
2.250000e+01	-2.252999e-05	1.214012e+00	3.438811e-04	1.494105e-04	1.944705e-04
2.275000e+01	-2.246324e-05	1.212835e+00	4.275435e-04	1.913085e-04	2.362350e-04
2.300000e+01	-2.216730e-05	1.211673e+00	5.092720e-04	2.324687e-04	2.768033e-04
2.325000e+01	-2.161653e-05	1.210518e+00	5.829047e-04	2.698358e-04	3.130689e-04
2.350000e+01	-2.080245e-05	1.209384e+00	6.520044e-04	3.051997e-04	3.468046e-04
2.375000e+01	-1.969880e-05	1.208269e+00	7.124821e-04	3.365423e-04	3.759399e-04
2.400000e+01	-1.829626e-05	1.207181e+00	7.659050e-04	3.646562e-04	4.012488e-04
2.425000e+01	-1.657602e-05	1.206112e+00	8.049095e-04	3.858787e-04	4.190308e-04
2.450000e+01	-1.455190e-05	1.205075e+00	8.369430e-04	4.039196e-04	4.330234e-04
2.475000e+01	-1.222035e-05	1.204064e+00	8.551742e-04	4.153668e-04	4.398075e-04
2.500000e+01	-9.613961e-06	1.203080e+00	8.637313e-04	4.222517e-04	4.414796e-04
2.525000e+01	-6.761716e-06	1.202122e+00	8.604767e-04	4.234767e-04	4.370001e-04
2.550000e+01	-3.704472e-06	1.201188e+00	8.456414e-04	4.191162e-04	4.265252e-04
2.575000e+01	-4.946875e-07	1.200277e+00	8.220201e-04	4.105154e-04	4.115047e-04
2.600000e+01	2.816915e-06	1.199390e+00	7.877206e-04	3.966772e-04	3.910434e-04
2.625000e+01	6.175868e-06	1.198521e+00	7.448160e-04	3.785839e-04	3.662321e-04
2.650000e+01	9.531412e-06	1.197670e+00	6.924201e-04	3.557415e-04	3.366786e-04
2.675000e+01	1.282996e-05	1.196836e+00	6.333118e-04	3.294859e-04	3.038259e-04
2.700000e+01	1.602917e-05	1.196017e+00	5.665136e-04	2.992860e-04	2.672276e-04
2.725000e+01	1.908730e-05	1.195214e+00	4.929951e-04	2.655849e-04	2.274103e-04
2.750000e+01	2.196451e-05	1.194422e+00	4.134368e-04	2.286829e-04	1.847539e-04
2.775000e+01	2.462801e-05	1.193645e+00	3.291756e-04	1.892158e-04	1.399598e-04
2.800000e+01	2.704714e-05	1.192880e+00	2.392884e-04	1.466913e-04	9.259706e-05
2.825000e+01	2.919874e-05	1.192128e+00	1.482222e-04	1.033099e-04	4.491237e-05
2.850000e+01	3.106046e-05	1.191387e+00	5.156972e-05	5.684532e-05	-5.275602e-06
2.875000e+01	3.260437e-05	1.190659e+00	-4.471839e-05	1.024518e-05	-5.496357e-05
2.900000e+01	3.381364e-05	1.189942e+00	-1.416465e-04	-3.700958e-05	-1.046369e-04
2.925000e+01	3.468090e-05	1.189237e+00	-2.397035e-04	-8.517087e-05	-1.545327e-04
2.950000e+01	3.518911e-05	1.188542e+00	-3.362281e-04	-1.329250e-04	-2.033032e-04
2.975000e+01	3.533025e-05	1.187859e+00	-4.307703e-04	-1.800549e-04	-2.507154e-04
3.000000e+01	3.510088e-05	1.187186e+00	-5.225618e-04	-2.261800e-04	-2.963818e-04
3.025000e+01	3.449832e-05	1.186523e+00	-6.103348e-04	-2.706691e-04	-3.396657e-04
3.050000e+01	3.352019e-05	1.185870e+00	-6.929165e-04	-3.129381e-04	-3.799785e-04
3.075000e+01	3.217842e-05	1.185229e+00	-7.697162e-04	-3.526797e-04	-4.170365e-04
3.100000e+01	3.047671e-05	1.184596e+00	-8.400068e-04	-3.895267e-04	-4.504801e-04
3.125000e+01	2.842848e-05	1.183973e+00	-9.026551e-04	-4.228991e-04	-4.797560e-04
3.150000e+01	2.605209e-05	1.183360e+00	-9.572733e-04	-4.525846e-04	-5.046888e-04
3.175000e+01	2.336306e-05	1.182756e+00	-1.002524e-03	-4.778988e-04	-5.246250e-04
3.200000e+01	2.038630e-05	1.182161e+00	-1.038741e-03	-4.989844e-04	-5.397570e-04
3.225000e+01	1.714811e-05	1.181575e+00	-1.064064e-03	-5.148841e-04	-5.491803e-04
3.250000e+01	1.367792e-05	1.180998e+00	-1.079384e-03	-5.260142e-04	-5.533701e-04
3.275000e+01	1.000505e-05	1.180429e+00	-1.083114e-03	-5.315522e-04	-5.515623e-04
3.300000e+01	6.166179e-06	1.179868e+00	-1.076296e-03	-5.319819e-04	-5.443143e-04
3.325000e+01	2.197386e-06	1.179315e+00	-1.057161e-03	-5.263833e-04	-5.307781e-04
3.350000e+01	-1.861923e-06	1.178770e+00	-1.026798e-03	-5.152609e-04	-5.115371e-04
3.375000e+01	-5.971635e-06	1.178233e+00	-9.852098e-04	-4.985765e-04	-4.866332e-04
3.400000e+01	-1.008937e-05	1.177704e+00	-9.324330e-04	-4.763059e-04	-4.561271e-04
3.425000e+01	-1.417345e-05	1.177182e+00	-8.685918e-04	-4.484694e-04	-4.201225e-04
3.450000e+01	-1.818096e-05	1.176667e+00	-7.942354e-04	-4.152986e-04	-3.789367e-04
3.475000e+01	-2.206801e-05	1.176159e+00	-7.101124e-04	-3.771242e-04	-3.329882e-04
3.500000e+01	-2.579146e-05	1.175659e+00	-6.174392e-04	-3.345111e-04	-2.829281e-04
3.525000e+01	-2.931149e-05	1.175165e+00	-5.143586e-04	-2.864908e-04	-2.278678e-04
3.550000e+01	-3.258384e-05	1.174678e+00	-4.054025e-04	-2.352851e-04	-1.701174e-04
3.575000e+01	-3.557119e-05	1.174198e+00	-2.889969e-04	-1.800696e-04	-1.089273e-04
3.600000e+01	-3.823734e-05	1.173724e+00	-1.665519e-04	-1.215133e-04	-4.503862e-05
3.625000e+01	-4.054520e-05	1.173256e+00	-4.027719e-05	-6.068379e-05	2.040660e-05
3.650000e+01	-4.246465e-05	1.172795e+00	8.940950e-05	2.240098e-06	8.716940e-05
3.675000e+01	-4.396739e-05	1.172339e+00	2.213392e-04	6.670219e-05	1.546370e-04
3.700000e+01	-4.502684e-05	1.171890e+00	3.543449e-04	1.321456e-04	2.221993e-04
3.725000e+01	-4.562315e-05	1.171447e+00	4.864388e-04	1.975963e-04	2.888426e-04
3.750000e+01	-4.573972e-05	1.171009e+00	6.167229e-04	2.626217e-04	3.541012e-04
3.775000e+01	-4.536431e-05	1.170577e+00	7.434119e-04	3.263416e-04	4.170703e-04
3.800000e+01	-4.448878e-05	1.170151e+00	8.649979e-04	3.880102e-04	4.769877e-04
3.825000e+01	-4.311183e-05	1.169730e+00	9.812437e-04	4.475100e-04	5.337337e-04
3.850000e+01	-4.123501e-05	1.169314e+00	1.089964e-03	5.037470e-04	5.862170e-04
3.875000e+01	-3.886589e-05	1.168904e+00	1.189131e-03	5.556994e-04	6.334312e-04
3.900000e+01	-3.601875e-05	1.168498e+00	1.279302e-03	6.036321e-04	6.756696e-04
3.925000e+01	-3.271061e-05	1.168098e+00	1.357274e-03	6.459266e-04	7.113478e-04
3.950000e+01	-2.896499e-05	1.167703e+00	1.423569e-03	6.828197e-04	7.407496e-04
3.975000e+01	-2.481005e-05	1.167312e+00	1.476467e-03	7.134235e-04	7.630436e-04
4.000000e+01	-2.028116e-05	1.166927e+00	1.515472e-03	7.374548e-04	7.780171e-04
4.025000e+01	-1.541315e-05	1.166546e+00	1.539088e-03	7.541308e-04	7.849571e-04
4.050000e+01	-1.025040e-05	1.166170e+00	1.547232e-03	7.633655e-04	7.838663e-04
4.075000e+01	-4.840183e-06	1.165798e+00	1.539629e-03	7.649742e-04	7.746545e-04
4.100000e+01	7.694231e-07	1.165431e+00	1.516085e-03	7.588118e-04	7.572729e-04
4.125000e+01	6.524657e-06	1.165069e+00	1.475671e-03	7.443601e-04	7.313108e-04
4.150000e+01	1.236730e-05	1.164710e+00	1.419972e-03	7.223532e-04	6.976186e-04
4.175000e+01	1.824401e-05	1.164356e+00	1.346318e-03	6.914031e-04	6.549151e-04
4.200000e+01	2.409116e-05	1.164007e+00	1.257364e-03	6.527730e-04	6.045907e-04
4.225000e+01	2.984813e-05	1.163661e+00	1.152299e-03	6.059977e-04	5.463014e-04
4.250000e+01	3.545399e-05	1.163319e+00	1.032865e-03	5.518865e-04	4.809785e-04
4.275000e+01	4.084417e-05	1.162982e+00	8.998129e-04	4.907506e-04	4.090623e-04
4.300000e+01	4.595897e-05	1.162648e+00	7.539454e-04	4.229317e-04	3.310137e-04
4.325000e+01	5.074105e-05	1.162319e+00	5.948265e-04	3.481543e-04	2.466722e-04
4.350000e+01	5.512587e-05	1.161993e+00	4.264263e-04	2.683390e-04	1.580873e-04
4.375000e+01	5.906068e-05	1.161671e+00	2.489627e-04	1.835420e-04	6.542069e-05
4.400000e+01	6.249457e-05	1.161353e+00	6.343087e-05	9.421000e-05	-3.077913e-05
4.425000e+01	6.537678e-05	1.161038e+00	-1.277160e-04	1.518801e-06	-1.292348e-04
4.450000e+01	6.766262e-05	1.160728e+00	-3.224306e-04	-9.355269e-05	-2.288779e-04
4.475000e+01	6.931314e-05	1.160420e+00	-5.194898e-04	-1.904318e-04	-3.290581e-04
4.500000e+01	7.029351e-05	1.160116e+00	-7.169074e-04	-2.881602e-04	-4.287472e-04
4.525000e+01	7.057453e-05	1.159815e+00	-9.123676e-04	-3.856093e-04	-5.267584e-04
4.550000e+01	7.013004e-05	1.159517e+00	-1.103521e-03	-4.816305e-04	-6.218906e-04
4.575000e+01	6.894726e-05	1.159223e+00	-1.288011e-03	-5.750584e-04	-7.129529e-04
4.600000e+01	6.701391e-05	1.158932e+00	-1.465893e-03	-6.659328e-04	-7.999606e-04
4.625000e+01	6.430995e-05	1.158642e+00	-1.631621e-03	-7.515007e-04	-8.801206e-04
4.650000e+01	6.082351e-05	1.158368e+00	-1.789121e-03	-8.337368e-04	-9.553839e-04
4.675000e+01	5.688138e-05	1.158098e+00	-1.933406e-03	-9.098214e-04	-1.023584e-03
4.700000e+01	5.220258e-05	1.157813e+00	-2.061533e-03	-9.785639e-04	-1.082969e-03
4.725000e+01	4.676288e-05	1.157536e+00	-2.168354e-03	-1.037414e-03	-1.130940e-03
4.750000e+01	4.066253e-05	1.157264e+00	-2.257055e-03	-1.087865e-03	-1.169190e-03
4.775000e+01	3.395957e-05	1.156995e+00	-2.325397e-03	-1.128739e-03	-1.196658e-03
4.800000e+01	2.671240e-05	1.156730e+00	-2.371896e-03	-1.159236e-03	-1.212660e-03
4.825000e+01	1.898329e-05	1.156468e+00	-2.395729e-03	-1.178881e-03	-1.216848e-03
4.850000e+01	1.083899e-05	1.156208e+00	-2.395541e-03	-1.186932e-03	-1.208610e-03
4.875000e+01	2.353230e-06	1.155951e+00	-2.371946e-03	-1.183620e-03	-1.188326e-03
4.900000e+01	-6.399555e-06	1.155697e+00	-2.321565e-03	-1.167182e-03	-1.154383e-03
4.925000e+01	-1.533394e-05	1.155446e+00	-2.246931e-03	-1.138799e-03	-1.108131e-03
4.950000e+01	-2.436338e-05	1.155197e+00	-2.147408e-03	-1.098067e-03	-1.049341e-03
4.975000e+01	-3.340166e-05	1.154951e+00	-2.022195e-03	-1.044499e-03	-9.776956e-04
5.000000e+01	-4.235302e-05	1.154708e+00	-1.873806e-03	-9.792560e-04	-8.945500e-04
5.025000e+01	-5.112723e-05	1.154468e+00	-1.701494e-03	-9.018742e-04	-7.996197e-04
5.050000e+01	-5.962813e-05	1.154230e+00	-1.506950e-03	-8.131033e-04	-6.938470e-04
5.075000e+01	-6.776160e-05	1.153995e+00	-1.291426e-03	-7.134747e-04	-5.779515e-04
5.100000e+01	-7.543417e-05	1.153762e+00	-1.056844e-03	-6.038560e-04	-4.529876e-04
5.125000e+01	-8.255613e-05	1.153532e+00	-8.045301e-04	-4.848212e-04	-3.197089e-04
5.150000e+01	-8.903961e-05	1.153304e+00	-5.362358e-04	-3.571575e-04	-1.790783e-04
5.175000e+01	-9.480019e-05	1.153079e+00	-2.557629e-04	-2.226816e-04	-3.308125e-05
5.200000e+01	-9.975922e-05	1.152857e+00	3.699526e-05	-8.126159e-05	1.182569e-04
5.225000e+01	-1.038430e-04	1.152636e+00	3.379243e-04	6.511914e-05	2.728052e-04
5.250000e+01	-1.069826e-04	1.152419e+00	6.443695e-04	2.152021e-04	4.291673e-04
5.275000e+01	-1.091213e-04	1.152203e+00	9.524252e-04	3.670913e-04	5.853339e-04
5.300000e+01	-1.102100e-04	1.151991e+00	1.261077e-03	5.203283e-04	7.407483e-04
5.325000e+01	-1.102072e-04	1.151780e+00	1.565547e-03	6.725665e-04	8.929809e-04
5.350000e+01	-1.090783e-04	1.151572e+00	1.863604e-03	8.227236e-04	1.040880e-03
5.375000e+01	-1.068042e-04	1.151367e+00	2.151563e-03	9.689775e-04	1.182586e-03
5.400000e+01	-1.033736e-04	1.151163e+00	2.426409e-03	1.109831e-03	1.316578e-03
5.425000e+01	-9.878756e-05	1.150962e+00	2.684926e-03	1.243675e-03	1.441250e-03
5.450000e+01	-9.305762e-05	1.150764e+00	2.924924e-03	1.369404e-03	1.555520e-03
5.475000e+01	-8.621049e-05	1.150567e+00	3.141400e-03	1.484490e-03	1.656911e-03
5.500000e+01	-7.827897e-05	1.150373e+00	3.334167e-03	1.588805e-03	1.745363e-03
5.525000e+01	-6.931488e-05	1.150181e+00	3.498778e-03	1.680074e-03	1.818704e-03
5.550000e+01	-5.937447e-05	1.149991e+00	3.633124e-03	1.757188e-03	1.875936e-03
5.575000e+01	-4.852832e-05	1.149803e+00	3.733412e-03	1.818178e-03	1.915234e-03
5.600000e+01	-3.686183e-05	1.149618e+00	3.801094e-03	1.863685e-03	1.937409e-03
5.625000e+01	-2.446158e-05	1.149434e+00	3.831288e-03	1.891182e-03	1.940106e-03
5.650000e+01	-1.143596e-05	1.149253e+00	3.826507e-03	1.901817e-03	1.924689e-03
5.675000e+01	2.103940e-06	1.149074e+00	3.781879e-03	1.893044e-03	1.888836e-03
5.700000e+01	1.604561e-05	1.148897e+00	3.698534e-03	1.865313e-03	1.833222e-03
5.725000e+01	3.025341e-05	1.148721e+00	3.574282e-03	1.817394e-03	1.756887e-03
5.750000e+01	4.460116e-05	1.148548e+00	3.410392e-03	1.749797e-03	1.660595e-03
5.775000e+01	5.894423e-05	1.148376e+00	3.207879e-03	1.662884e-03	1.544996e-03
5.800000e+01	7.314092e-05	1.148207e+00	2.970117e-03	1.558199e-03	1.411918e-03
5.825000e+01	8.704915e-05	1.148040e+00	2.691013e-03	1.432556e-03	1.258457e-03
5.850000e+01	1.005166e-04	1.147874e+00	2.378606e-03	1.289820e-03	1.088786e-03
5.875000e+01	1.134021e-04	1.147711e+00	2.031553e-03	1.129179e-03	9.023746e-04
5.900000e+01	1.255530e-04	1.147549e+00	1.655894e-03	9.535000e-04	7.023939e-04
5.925000e+01	1.368279e-04	1.147391e+00	1.253253e-03	7.634544e-04	4.897987e-04
5.950000e+01	1.470961e-04	1.147233e+00	8.216948e-04	5.579435e-04	2.637513e-04
5.975000e+01	1.562153e-04	1.147076e+00	3.704329e-04	3.414318e-04	2.900116e-05
6.000000e+01	1.640621e-04	1.146923e+00	-9.770940e-05	1.152074e-04	-2.129168e-04
6.025000e+01	1.705251e-04	1.146772e+00	-5.826647e-04	-1.208072e-04	-4.618575e-04
6.050000e+01	1.754844e-04	1.146622e+00	-1.069300e-03	-3.591656e-04	-7.101345e-04
6.075000e+01	1.788659e-04	1.146474e+00	-1.570331e-03	-6.062996e-04	-9.640313e-04
6.100000e+01	1.805653e-04	1.146329e+00	-2.062380e-03	-8.506245e-04	-1.211755e-03
6.125000e+01	1.805315e-04	1.146185e+00	-2.555179e-03	-1.097058e-03	-1.458121e-03
6.150000e+01	1.787007e-04	1.146044e+00	-3.035243e-03	-1.338921e-03	-1.696322e-03
6.175000e+01	1.750383e-04	1.145904e+00	-3.498926e-03	-1.574425e-03	-1.924501e-03
6.200000e+01	1.695280e-04	1.145767e+00	-3.943834e-03	-1.802389e-03	-2.141445e-03
6.225000e+01	1.621684e-04	1.145633e+00	-4.367849e-03	-2.021756e-03	-2.346093e-03
6.250000e+01	1.529656e-04	1.145498e+00	-4.753248e-03	-2.223658e-03	-2.529590e-03
6.275000e+01	1.419696e-04	1.145369e+00	-5.115013e-03	-2.415537e-03	-2.699476e-03
6.300000e+01	1.292193e-04	1.145238e+00	-5.428572e-03	-2.585066e-03	-2.843505e-03
6.325000e+01	1.147972e-04	1.145112e+00	-5.701992e-03	-2.736199e-03	-2.965793e-03
6.350000e+01	9.879420e-05	1.144986e+00	-5.924806e-03	-2.863609e-03	-3.061197e-03
6.375000e+01	8.131994e-05	1.144863e+00	-6.098757e-03	-2.968059e-03	-3.130699e-03
6.400000e+01	6.250752e-05	1.144743e+00	-6.218519e-03	-3.046752e-03	-3.171767e-03
6.425000e+01	4.250402e-05	1.144623e+00	-6.279632e-03	-3.097312e-03	-3.182320e-03
6.450000e+01	2.148341e-05	1.144507e+00	-6.284096e-03	-3.120565e-03	-3.163531e-03
6.475000e+01	-3.728366e-07	1.144391e+00	-6.226148e-03	-3.113447e-03	-3.112701e-03
6.500000e+01	-2.398484e-05	1.144277e+00	-6.072788e-03	-3.060379e-03	-3.012409e-03
6.525000e+01	-4.834647e-05	1.144165e+00	-5.881033e-03	-2.988863e-03	-2.892170e-03
6.550000e+01	-7.249657e-05	1.144057e+00	-5.621926e-03	-2.883460e-03	-2.738466e-03
6.575000e+01	-9.642667e-05	1.143949e+00	-5.302045e-03	-2.747449e-03	-2.554596e-03
6.600000e+01	-1.197170e-04	1.143844e+00	-4.928207e-03	-2.583820e-03	-2.344386e-03
6.625000e+01	-1.423394e-04	1.143740e+00	-4.492903e-03	-2.388791e-03	-2.104112e-03
6.650000e+01	-1.642915e-04	1.143638e+00	-3.990783e-03	-2.159683e-03	-1.831100e-03
6.675000e+01	-1.853102e-04	1.143537e+00	-3.441339e-03	-1.905980e-03	-1.535359e-03
6.700000e+01	-2.051722e-04	1.143440e+00	-2.837170e-03	-1.623757e-03	-1.213413e-03
6.725000e+01	-2.236413e-04	1.143344e+00	-2.186205e-03	-1.316744e-03	-8.694610e-04
6.750000e+01	-2.404720e-04	1.143249e+00	-1.500746e-03	-9.908449e-04	-5.099010e-04
6.775000e+01	-2.554934e-04	1.143159e+00	-7.711612e-04	-6.410740e-04	-1.300872e-04
6.800000e+01	-2.684771e-04	1.143069e+00	-2.084892e-06	-2.695195e-04	2.674347e-04
6.825000e+01	-2.792124e-04	1.142984e+00	7.800153e-04	1.107953e-04	6.692200e-04
6.850000e+01	-2.875381e-04	1.142897e+00	1.575707e-03	5.003152e-04	1.075391e-03
6.875000e+01	-2.932984e-04	1.142819e+00	2.390854e-03	9.021287e-04	1.488725e-03
6.900000e+01	-2.963505e-04	1.142738e+00	3.195017e-03	1.301158e-03	1.893859e-03
6.925000e+01	-2.966011e-04	1.142662e+00	4.007781e-03	1.707290e-03	2.300492e-03
6.950000e+01	-2.939283e-04	1.142586e+00	4.792066e-03	2.102105e-03	2.689961e-03
6.975000e+01	-2.883102e-04	1.142515e+00	5.562617e-03	2.492998e-03	3.069619e-03
7.000000e+01	-2.796625e-04	1.142449e+00	6.301891e-03	2.871283e-03	3.430608e-03
7.025000e+01	-2.679979e-04	1.142383e+00	7.001047e-03	3.232526e-03	3.768521e-03
7.050000e+01	-2.533343e-04	1.142319e+00	7.657704e-03	3.575518e-03	4.082186e-03
7.075000e+01	-2.357064e-04	1.142260e+00	8.254053e-03	3.891320e-03	4.362733e-03
7.100000e+01	-2.152126e-04	1.142203e+00	8.792475e-03	4.181025e-03	4.611450e-03
7.125000e+01	-1.919501e-04	1.142150e+00	9.259701e-03	4.437901e-03	4.821801e-03
7.150000e+01	-1.619244e-04	1.142096e+00	9.591688e-03	4.633919e-03	4.957768e-03
7.175000e+01	-1.302706e-04	1.142048e+00	9.925903e-03	4.832681e-03	5.093222e-03
7.200000e+01	-9.957639e-05	1.142003e+00	1.015851e-02	4.979680e-03	5.178833e-03
7.225000e+01	-6.627846e-05	1.141961e+00	1.028561e-02	5.076528e-03	5.209085e-03
7.250000e+01	-3.113083e-05	1.141921e+00	1.031409e-02	5.125913e-03	5.188175e-03
7.275000e+01	5.366750e-06	1.141885e+00	1.024064e-02	5.125688e-03	5.114954e-03
7.300000e+01	4.283161e-05	1.141849e+00	1.006114e-02	5.073401e-03	4.987738e-03
7.325000e+01	8.091131e-05	1.141821e+00	9.781074e-03	4.971448e-03	4.809626e-03
7.350000e+01	1.192266e-04	1.141790e+00	9.405732e-03	4.822092e-03	4.583639e-03
7.375000e+01	1.574022e-04	1.141764e+00	8.918179e-03	4.616492e-03	4.301687e-03
7.400000e+01	1.951486e-04	1.141742e+00	8.323995e-03	4.357146e-03	3.966849e-03
7.425000e+01	2.320492e-04	1.141723e+00	7.632760e-03	4.048429e-03	3.584331e-03
7.450000e+01	2.676953e-04	1.141707e+00	6.854306e-03	3.694848e-03	3.159458e-03
7.475000e+01	3.017549e-04	1.141691e+00	5.981040e-03	3.292275e-03	2.688765e-03
7.500000e+01	3.338389e-04	1.141680e+00	5.016663e-03	2.842171e-03	2.174493e-03
7.525000e+01	3.635695e-04	1.141674e+00	3.992561e-03	2.359850e-03	1.632711e-03
7.550000e+01	3.906097e-04	1.141670e+00	2.864580e-03	1.822900e-03	1.041680e-03
7.575000e+01	4.146045e-04	1.141670e+00	1.687371e-03	1.258290e-03	4.290808e-04
7.600000e+01	4.352391e-04	1.141676e+00	4.611645e-04	6.658213e-04	-2.046568e-04
7.625000e+01	4.522093e-04	1.141684e+00	-8.177484e-04	4.333510e-05	-8.610835e-04
7.650000e+01	4.652392e-04	1.141695e+00	-2.115316e-03	-5.924186e-04	-1.522897e-03
7.675000e+01	4.740709e-04	1.141714e+00	-3.428239e-03	-1.240049e-03	-2.188190e-03
7.700000e+01	4.785565e-04	1.141737e+00	-4.773068e-03	-1.907978e-03	-2.865091e-03
7.725000e+01	4.784651e-04	1.141764e+00	-6.099746e-03	-2.571408e-03	-3.528338e-03
7.750000e+01	4.736588e-04	1.141797e+00	-7.410844e-03	-3.231763e-03	-4.179081e-03
7.775000e+01	4.640487e-04	1.141834e+00	-8.694075e-03	-3.882989e-03	-4.811086e-03
7.800000e+01	4.495215e-04	1.141879e+00	-9.892893e-03	-4.496925e-03	-5.395968e-03
7.825000e+01	4.302015e-04	1.141928e+00	-1.110850e-02	-5.124051e-03	-5.984454e-03
7.850000e+01	4.060558e-04	1.141984e+00	-1.221948e-02	-5.703684e-03	-6.515796e-03
7.875000e+01	3.771710e-04	1.142045e+00	-1.324900e-02	-6.247328e-03	-7.001670e-03
7.900000e+01	3.436938e-04	1.142112e+00	-1.415553e-02	-6.734070e-03	-7.421458e-03
7.925000e+01	3.057654e-04	1.142187e+00	-1.497828e-02	-7.183373e-03	-7.794904e-03
7.950000e+01	2.636510e-04	1.142266e+00	-1.567614e-02	-7.574419e-03	-8.101721e-03
7.975000e+01	2.176930e-04	1.142351e+00	-1.623746e-02	-7.901035e-03	-8.336421e-03
8.000000e+01	1.681593e-04	1.142441e+00	-1.665559e-02	-8.159634e-03	-8.495952e-03
8.025000e+01	1.153312e-04	1.142539e+00	-1.692944e-02	-8.349386e-03	-8.580049e-03
8.050000e+01	5.970515e-05	1.142642e+00	-1.704701e-02	-8.463798e-03	-8.583208e-03
8.075000e+01	1.775721e-06	1.142750e+00	-1.701875e-02	-8.507599e-03	-8.511151e-03
8.100000e+01	-5.809617e-05	1.142865e+00	-1.680510e-02	-8.460646e-03	-8.344453e-03
8.125000e+01	-1.193756e-04	1.142983e+00	-1.640760e-02	-8.323177e-03	-8.084426e-03
8.150000e+01	-1.814913e-04	1.143109e+00	-1.586626e-02	-8.114623e-03	-7.751640e-03
8.175000e+01	-2.438451e-04	1.143240e+00	-1.513061e-02	-7.809151e-03	-7.321461e-03
8.200000e+01	-3.059020e-04	1.143374e+00	-1.423021e-02	-7.421005e-03	-6.809201e-03
8.225000e+01	-3.669826e-04	1.143515e+00	-1.315675e-02	-6.945355e-03	-6.211390e-03
8.250000e+01	-4.264037e-04	1.143663e+00	-1.192299e-02	-6.387899e-03	-5.535091e-03
8.275000e+01	-4.835135e-04	1.143818e+00	-1.050827e-02	-5.737647e-03	-4.770620e-03
8.300000e+01	-5.376888e-04	1.143976e+00	-8.945499e-03	-5.010439e-03	-3.935061e-03
8.325000e+01	-5.882447e-04	1.144142e+00	-7.252601e-03	-4.214545e-03	-3.038056e-03
8.350000e+01	-6.345527e-04	1.144317e+00	-5.459469e-03	-3.364287e-03	-2.095182e-03
8.375000e+01	-6.760814e-04	1.144497e+00	-3.524483e-03	-2.438323e-03	-1.086160e-03
8.400000e+01	-7.122251e-04	1.144688e+00	-1.519208e-03	-1.471829e-03	-4.737887e-05
8.425000e+01	-7.424915e-04	1.144885e+00	5.779760e-04	-4.535036e-04	1.031480e-03
8.450000e+01	-7.664317e-04	1.145090e+00	2.770685e-03	6.189110e-04	2.151774e-03
8.475000e+01	-7.834441e-04	1.145307e+00	4.938720e-03	1.685916e-03	3.252804e-03
8.500000e+01	-7.932778e-04	1.145535e+00	7.188171e-03	2.800807e-03	4.387363e-03
8.525000e+01	-7.955463e-04	1.145771e+00	9.398808e-03	3.903858e-03	5.494950e-03
8.550000e+01	-7.900363e-04	1.146022e+00	1.162668e-02	5.023304e-03	6.603376e-03
8.575000e+01	-7.765602e-04	1.146285e+00	1.380023e-02	6.123553e-03	7.676673e-03
8.600000e+01	-7.549131e-04	1.146556e+00	1.592002e-02	7.205097e-03	8.714923e-03
8.625000e+01	-7.250525e-04	1.146841e+00	1.788125e-02	8.215573e-03	9.665678e-03
8.650000e+01	-6.870402e-04	1.147140e+00	1.983780e-02	9.231860e-03	1.060594e-02
8.675000e+01	-6.408268e-04	1.147451e+00	2.155516e-02	1.013675e-02	1.141841e-02
8.700000e+01	-5.868759e-04	1.147773e+00	2.319947e-02	1.101286e-02	1.218661e-02
8.725000e+01	-5.252034e-04	1.148110e+00	2.461131e-02	1.178045e-02	1.283086e-02
8.750000e+01	-4.563367e-04	1.148459e+00	2.583208e-02	1.245970e-02	1.337238e-02
8.775000e+01	-3.807686e-04	1.148819e+00	2.686825e-02	1.305336e-02	1.381489e-02
8.800000e+01	-2.988507e-04	1.149190e+00	2.761643e-02	1.350936e-02	1.410707e-02
8.825000e+01	-2.112667e-04	1.149573e+00	2.811020e-02	1.384384e-02	1.426637e-02
8.850000e+01	-1.187647e-04	1.149966e+00	2.835590e-02	1.405918e-02	1.429671e-02
8.875000e+01	-2.218892e-05	1.150369e+00	2.833121e-02	1.414341e-02	1.418779e-02
8.900000e+01	7.778280e-05	1.150780e+00	2.803153e-02	1.409355e-02	1.393798e-02
8.925000e+01	1.801529e-04	1.151205e+00	2.740122e-02	1.388076e-02	1.352046e-02
8.950000e+01	2.840771e-04	1.151632e+00	2.643065e-02	1.349940e-02	1.293125e-02
8.975000e+01	3.883163e-04	1.152077e+00	2.522847e-02	1.300255e-02	1.222592e-02
9.000000e+01	4.920574e-04	1.152526e+00	2.372350e-02	1.235381e-02	1.136969e-02
9.025000e+01	5.941321e-04	1.152980e+00	2.192087e-02	1.155457e-02	1.036630e-02
9.050000e+01	6.934599e-04	1.153449e+00	1.982619e-02	1.060655e-02	9.219634e-03
9.075000e+01	7.889388e-04	1.153922e+00	1.744210e-02	9.509989e-03	7.932112e-03
9.100000e+01	8.794444e-04	1.154405e+00	1.478440e-02	8.271646e-03	6.512757e-03
9.125000e+01	9.638665e-04	1.154905e+00	1.194629e-02	6.937010e-03	5.009277e-03
9.150000e+01	1.041204e-03	1.155410e+00	8.819673e-03	5.451040e-03	3.368633e-03
9.175000e+01	1.110316e-03	1.155928e+00	5.538073e-03	3.879352e-03	1.658720e-03
9.200000e+01	1.170332e-03	1.156460e+00	2.060805e-03	2.200735e-03	-1.399298e-04
9.225000e+01	1.220180e-03	1.157006e+00	-1.529316e-03	4.555218e-04	-1.984838e-03