# Force       
# CofR        : (0.000000e+00 0.000000e+00 0.000000e+00)
#
# Time        	(total_x total_y total_z)	(pressure_x pressure_y pressure_z)	(viscous_x viscous_y viscous_z)
0.025         	(1.032752e+04 -8.965008e-02 -6.646143e-19)	(1.030607e+04 -8.949427e-02 0.000000e+00)	(2.145490e+01 -1.558108e-04 -6.646143e-19)
0.05          	(-3.350269e+03 2.465279e-01 2.342705e-18)	(-3.365796e+03 2.457119e-01 0.000000e+00)	(1.552670e+01 8.159916e-04 2.342705e-18)
0.075         	(1.971177e+03 -6.405450e-02 9.617924e-20)	(1.960469e+03 -6.270683e-02 0.000000e+00)	(1.070857e+01 -1.347672e-03 9.617924e-20)
0.1           	(-1.195784e+03 7.604149e-02 4.991835e-19)	(-1.203212e+03 7.716672e-02 0.000000e+00)	(7.428073e+00 -1.125233e-03 4.991835e-19)
0.125         	(2.529606e+02 -3.952304e-02 7.160379e-21)	(2.473715e+02 -3.992507e-02 0.000000e+00)	(5.589137e+00 4.020329e-04 7.160379e-21)
0.15          	(-4.388341e+02 2.426862e-02 9.507498e-20)	(-4.433698e+02 2.366347e-02 0.000000e+00)	(4.535681e+00 6.051500e-04 9.507498e-20)
0.175         	(-7.103214e+00 -6.718553e-03 3.655190e-20)	(-1.101821e+01 -7.377873e-03 0.000000e+00)	(3.914997e+00 6.593199e-04 3.655190e-20)
0.2           	(-1.477991e+02 1.808451e-02 5.005842e-20)	(-1.513277e+02 1.734238e-02 0.000000e+00)	(3.528589e+00 7.421370e-04 5.005842e-20)
0.225         	(-1.690578e+01 1.254343e-02 2.632905e-20)	(-2.017371e+01 1.196890e-02 0.000000e+00)	(3.267930e+00 5.745354e-04 2.632905e-20)
0.25          	(-4.217434e+01 1.107285e-02 2.580927e-20)	(-4.523874e+01 1.051435e-02 0.000000e+00)	(3.064392e+00 5.585006e-04 2.580927e-20)
0.275         	(-2.318628e+00 -2.391194e-03 1.959409e-20)	(-5.212162e+00 -2.925906e-03 0.000000e+00)	(2.893533e+00 5.347128e-04 1.959409e-20)
0.3           	(-4.944739e+00 1.128023e-03 1.871585e-20)	(-7.688269e+00 6.376039e-04 0.000000e+00)	(2.743530e+00 4.904190e-04 1.871585e-20)
0.325         	(7.856229e+00 -6.848074e-03 1.582072e-20)	(5.249068e+00 -7.252072e-03 0.000000e+00)	(2.607161e+00 4.039982e-04 1.582072e-20)
0.35          	(8.666413e+00 -8.343420e-03 1.469749e-20)	(6.184566e+00 -8.646891e-03 0.000000e+00)	(2.481848e+00 3.034714e-04 1.469749e-20)
0.375         	(1.307378e+01 -1.037753e-02 1.323773e-20)	(1.070628e+01 -1.058430e-02 0.000000e+00)	(2.367505e+00 2.067714e-04 1.323773e-20)
0.4           	(1.408227e+01 -1.264336e-02 1.236897e-20)	(1.182036e+01 -1.275030e-02 0.000000e+00)	(2.261909e+00 1.069378e-04 1.236897e-20)
0.425         	(1.579169e+01 -6.200611e-03 1.147352e-20)	(1.362865e+01 -6.273792e-03 0.000000e+00)	(2.163039e+00 7.318113e-05 1.147352e-20)
0.45          	(1.653358e+01 -1.121513e-02 1.085129e-20)	(1.446263e+01 -1.125455e-02 0.000000e+00)	(2.070943e+00 3.941854e-05 1.085129e-20)
0.475         	(1.733822e+01 -3.356362e-03 1.021221e-20)	(1.535345e+01 -3.392770e-03 0.000000e+00)	(1.984769e+00 3.640847e-05 1.021221e-20)
0.5           	(1.783581e+01 -7.765542e-03 7.763849e-21)	(1.593173e+01 -7.785604e-03 0.000000e+00)	(1.904086e+00 2.006161e-05 7.763849e-21)
0.525         	(1.824048e+01 -6.761480e-04 7.484864e-21)	(1.641194e+01 -7.066278e-04 0.000000e+00)	(1.828542e+00 3.047978e-05 7.484864e-21)
0.55          	(1.853858e+01 -2.270009e-03 7.157936e-21)	(1.678084e+01 -2.308070e-03 0.000000e+00)	(1.757741e+00 3.806119e-05 7.157936e-21)
0.575         	(1.877700e+01 3.192540e-04 6.755509e-21)	(1.708579e+01 2.719929e-04 0.000000e+00)	(1.691214e+00 4.726102e-05 6.755509e-21)
0.6           	(1.897621e+01 -1.604843e-03 6.396097e-21)	(1.734790e+01 -1.649939e-03 0.000000e+00)	(1.628307e+00 4.509543e-05 6.396097e-21)
0.625         	(1.913674e+01 1.874522e-03 6.633914e-21)	(1.756812e+01 1.815234e-03 0.000000e+00)	(1.568616e+00 5.928826e-05 6.633914e-21)
0.65          	(1.925429e+01 7.268652e-04 7.001668e-21)	(1.774207e+01 6.575043e-04 0.000000e+00)	(1.512222e+00 6.936088e-05 7.001668e-21)
0.675         	(1.933799e+01 1.467358e-03 7.167837e-21)	(1.787922e+01 1.390703e-03 0.000000e+00)	(1.458772e+00 7.665519e-05 7.167837e-21)
0.7           	(1.937470e+01 2.661102e-03 6.972783e-21)	(1.796670e+01 2.567097e-03 0.000000e+00)	(1.407997e+00 9.400465e-05 6.972783e-21)
0.725         	(1.941265e+01 2.100228e-03 6.801030e-21)	(1.805313e+01 1.993575e-03 0.000000e+00)	(1.359514e+00 1.066526e-04 6.801030e-21)
0.75          	(1.942947e+01 2.326914e-03 6.827355e-21)	(1.811627e+01 2.218749e-03 0.000000e+00)	(1.313199e+00 1.081650e-04 6.827355e-21)
0.775         	(1.946027e+01 2.760795e-03 6.461480e-21)	(1.819130e+01 2.648434e-03 0.000000e+00)	(1.268972e+00 1.123601e-04 6.461480e-21)
0.8           	(1.946215e+01 1.518371e-03 6.225850e-21)	(1.823569e+01 1.415805e-03 0.000000e+00)	(1.226458e+00 1.025663e-04 6.225850e-21)
0.825         	(1.945982e+01 1.753906e-03 6.061374e-21)	(1.827412e+01 1.661146e-03 0.000000e+00)	(1.185697e+00 9.276089e-05 6.061374e-21)
0.85          	(1.947237e+01 6.160433e-04 5.913570e-21)	(1.832575e+01 5.382200e-04 0.000000e+00)	(1.146615e+00 7.782327e-05 5.913570e-21)
0.875         	(1.946147e+01 7.177270e-04 5.789444e-21)	(1.835243e+01 6.511473e-04 0.000000e+00)	(1.109043e+00 6.657976e-05 5.789444e-21)
0.9           	(1.944898e+01 7.455769e-05 5.700585e-21)	(1.837608e+01 1.774880e-05 0.000000e+00)	(1.072899e+00 5.680888e-05 5.700585e-21)
0.925         	(1.941903e+01 9.660101e-05 5.592892e-21)	(1.838088e+01 4.826256e-05 0.000000e+00)	(1.038151e+00 4.833845e-05 5.592892e-21)
0.95          	(1.940456e+01 -4.405593e-04 5.484581e-21)	(1.839995e+01 -4.792517e-04 0.000000e+00)	(1.004612e+00 3.869243e-05 5.484581e-21)
0.975         	(1.938905e+01 3.122593e-05 5.344538e-21)	(1.841677e+01 -1.553667e-06 0.000000e+00)	(9.722797e-01 3.277960e-05 5.344538e-21)
1             	(1.937122e+01 -7.925415e-05 5.235555e-21)	(1.843021e+01 -1.081855e-04 0.000000e+00)	(9.410056e-01 2.893135e-05 5.235555e-21)
1.025         	(1.935504e+01 -7.912952e-04 5.122725e-21)	(1.844426e+01 -8.128489e-04 0.000000e+00)	(9.107721e-01 2.155376e-05 5.122725e-21)
1.05          	(1.932400e+01 -6.729210e-04 5.019396e-21)	(1.844260e+01 -6.879094e-04 0.000000e+00)	(8.813971e-01 1.498839e-05 5.019396e-21)
1.075         	(1.930482e+01 -1.019352e-03 4.919488e-21)	(1.845188e+01 -1.028613e-03 0.000000e+00)	(8.529390e-01 9.260868e-06 4.919488e-21)
1.1           	(1.927392e+01 -3.963584e-04 5.542735e-21)	(1.844855e+01 -4.012696e-04 0.000000e+00)	(8.253692e-01 4.911168e-06 5.542735e-21)
1.125         	(1.924719e+01 -1.128093e-03 5.450388e-21)	(1.844854e+01 -1.127083e-03 0.000000e+00)	(7.986426e-01 -1.009420e-06 5.450388e-21)
1.15          	(1.921868e+01 -2.482455e-04 5.359458e-21)	(1.844596e+01 -2.450375e-04 0.000000e+00)	(7.727226e-01 -3.208043e-06 5.359458e-21)
1.175         	(1.918947e+01 -5.459952e-04 5.271690e-21)	(1.844187e+01 -5.406553e-04 0.000000e+00)	(7.476018e-01 -5.339907e-06 5.271690e-21)
1.2           	(1.916205e+01 -1.578520e-04 5.198406e-21)	(1.843881e+01 -1.505520e-04 0.000000e+00)	(7.232334e-01 -7.299965e-06 5.198406e-21)
1.225         	(1.913688e+01 -5.741516e-04 5.120952e-21)	(1.843738e+01 -5.637813e-04 0.000000e+00)	(6.994967e-01 -1.037036e-05 5.120952e-21)
1.25          	(1.910968e+01 3.220479e-06 5.475963e-21)	(1.843329e+01 1.465519e-05 0.000000e+00)	(6.763873e-01 -1.143471e-05 5.475963e-21)
1.275         	(1.907324e+01 -3.532950e-04 5.388821e-21)	(1.841935e+01 -3.399425e-04 0.000000e+00)	(6.538890e-01 -1.335252e-05 5.388821e-21)
1.3           	(1.905038e+01 3.343664e-06 5.310249e-21)	(1.841838e+01 1.769266e-05 0.000000e+00)	(6.320071e-01 -1.434900e-05 5.310249e-21)
1.325         	(1.902298e+01 -1.598088e-04 5.235825e-21)	(1.841232e+01 -1.442897e-04 0.000000e+00)	(6.106567e-01 -1.551918e-05 5.235825e-21)
1.35          	(1.898942e+01 -5.166325e-05 4.993941e-21)	(1.839960e+01 -3.501388e-05 0.000000e+00)	(5.898199e-01 -1.664938e-05 4.993941e-21)
1.375         	(1.896934e+01 -2.758858e-04 4.729201e-21)	(1.839984e+01 -2.565565e-04 0.000000e+00)	(5.694972e-01 -1.932925e-05 4.729201e-21)
1.4           	(1.894084e+01 8.587000e-05 4.493421e-21)	(1.839119e+01 1.061154e-04 0.000000e+00)	(5.496482e-01 -2.024542e-05 4.493421e-21)
1.425         	(1.891098e+01 -3.484253e-04 4.308744e-21)	(1.838071e+01 -3.259129e-04 0.000000e+00)	(5.302697e-01 -2.251239e-05 4.308744e-21)
1.45          	(1.888969e+01 3.142714e-04 3.767978e-21)	(1.837832e+01 3.367157e-04 0.000000e+00)	(5.113607e-01 -2.244435e-05 3.767978e-21)
1.475         	(1.886322e+01 -1.313157e-04 3.668270e-21)	(1.837033e+01 -1.080087e-04 0.000000e+00)	(4.928883e-01 -2.330698e-05 3.668270e-21)
1.5           	(1.883303e+01 2.824216e-04 3.572691e-21)	(1.835820e+01 3.057678e-04 0.000000e+00)	(4.748234e-01 -2.334629e-05 3.572691e-21)
1.525         	(1.880961e+01 -1.763798e-04 3.488784e-21)	(1.835249e+01 -1.516430e-04 0.000000e+00)	(4.571119e-01 -2.473678e-05 3.488784e-21)
1.55          	(1.877889e+01 4.473207e-04 3.464482e-21)	(1.833915e+01 4.715398e-04 0.000000e+00)	(4.397479e-01 -2.421913e-05 3.464482e-21)
1.575         	(1.876152e+01 -6.566093e-05 3.551500e-21)	(1.833876e+01 -4.055980e-05 0.000000e+00)	(4.227593e-01 -2.510114e-05 3.551500e-21)
1.6           	(1.873242e+01 5.809210e-04 3.592211e-21)	(1.832631e+01 6.050241e-04 0.000000e+00)	(4.061055e-01 -2.410302e-05 3.592211e-21)
1.625         	(1.871164e+01 1.799729e-04 3.601016e-21)	(1.832187e+01 2.041586e-04 0.000000e+00)	(3.897701e-01 -2.418575e-05 3.601016e-21)
1.65          	(1.868079e+01 6.512069e-04 3.578295e-21)	(1.830712e+01 6.743246e-04 0.000000e+00)	(3.736734e-01 -2.311769e-05 3.578295e-21)
1.675         	(1.864612e+01 -1.076207e-03 3.063881e-21)	(1.828822e+01 -1.047173e-03 0.000000e+00)	(3.579008e-01 -2.903401e-05 3.063881e-21)
1.7           	(1.862504e+01 -3.064554e-04 2.969968e-21)	(1.828259e+01 -2.747939e-04 0.000000e+00)	(3.424508e-01 -3.166141e-05 2.969968e-21)
1.725         	(1.860010e+01 -5.001439e-04 2.937603e-21)	(1.827281e+01 -4.681896e-04 0.000000e+00)	(3.272860e-01 -3.195428e-05 2.937603e-21)
1.75          	(1.857694e+01 -9.600958e-05 2.907156e-21)	(1.826454e+01 -6.517049e-05 0.000000e+00)	(3.124027e-01 -3.083908e-05 2.907156e-21)
1.775         	(1.854735e+01 -3.789011e-04 2.877789e-21)	(1.824957e+01 -3.479412e-04 0.000000e+00)	(2.977817e-01 -3.095991e-05 2.877789e-21)
1.8           	(1.852445e+01 1.295392e-04 2.849766e-21)	(1.824102e+01 1.595457e-04 0.000000e+00)	(2.834255e-01 -3.000655e-05 2.849766e-21)
1.825         	(1.849753e+01 -2.110233e-04 2.823476e-21)	(1.822821e+01 -1.807939e-04 0.000000e+00)	(2.693234e-01 -3.022935e-05 2.823476e-21)
1.85          	(1.847464e+01 1.923995e-04 2.798155e-21)	(1.821920e+01 2.219642e-04 0.000000e+00)	(2.554415e-01 -2.956473e-05 2.798155e-21)
1.875         	(1.845279e+01 -2.544342e-05 2.773377e-21)	(1.821101e+01 4.062281e-06 0.000000e+00)	(2.417758e-01 -2.950570e-05 2.773377e-21)
1.9           	(1.843240e+01 3.404150e-04 2.749257e-21)	(1.820407e+01 3.686799e-04 0.000000e+00)	(2.283352e-01 -2.826490e-05 2.749257e-21)
1.925         	(1.840504e+01 -5.563435e-05 2.726273e-21)	(1.818993e+01 -2.675671e-05 0.000000e+00)	(2.151057e-01 -2.887764e-05 2.726273e-21)
1.95          	(1.838038e+01 4.030253e-04 2.704163e-21)	(1.817830e+01 4.310387e-04 0.000000e+00)	(2.020761e-01 -2.801336e-05 2.704163e-21)
1.975         	(1.835653e+01 -2.704996e-05 2.682371e-21)	(1.816734e+01 1.266858e-06 0.000000e+00)	(1.891908e-01 -2.831682e-05 2.682371e-21)
2             	(1.833028e+01 3.354115e-04 2.857012e-21)	(1.815379e+01 3.631975e-04 0.000000e+00)	(1.764876e-01 -2.778602e-05 2.857012e-21)
2.025         	(1.830387e+01 -4.272183e-05 2.900708e-21)	(1.813986e+01 -1.434244e-05 0.000000e+00)	(1.640029e-01 -2.837939e-05 2.900708e-21)
2.05          	(1.827921e+01 1.710333e-03 2.920694e-21)	(1.812751e+01 1.733099e-03 0.000000e+00)	(1.516941e-01 -2.276608e-05 2.920694e-21)
2.075         	(1.825414e+01 7.409422e-04 2.877415e-21)	(1.811457e+01 7.622042e-04 0.000000e+00)	(1.395669e-01 -2.126199e-05 2.877415e-21)
2.1           	(1.823051e+01 9.580338e-04 2.891452e-21)	(1.810289e+01 9.797186e-04 0.000000e+00)	(1.276218e-01 -2.168476e-05 2.891452e-21)
2.125         	(1.820277e+01 5.656915e-04 2.868677e-21)	(1.808692e+01 5.888123e-04 0.000000e+00)	(1.158429e-01 -2.312085e-05 2.868677e-21)
2.15          	(1.818349e+01 9.523311e-04 2.818477e-21)	(1.807925e+01 9.753726e-04 0.000000e+00)	(1.042397e-01 -2.304147e-05 2.818477e-21)
2.175         	(1.815147e+01 -2.944369e-04 2.780363e-21)	(1.805869e+01 -2.670862e-04 0.000000e+00)	(9.278554e-02 -2.735068e-05 2.780363e-21)
2.2           	(1.812547e+01 7.544415e-04 2.749671e-21)	(1.804400e+01 7.815289e-04 0.000000e+00)	(8.147265e-02 -2.708732e-05 2.749671e-21)
2.225         	(1.809904e+01 4.232662e-04 2.724098e-21)	(1.802873e+01 4.485744e-04 0.000000e+00)	(7.030990e-02 -2.530818e-05 2.724098e-21)
2.25          	(1.807502e+01 1.963198e-04 2.540954e-21)	(1.801572e+01 2.212314e-04 0.000000e+00)	(5.930002e-02 -2.491161e-05 2.540954e-21)
2.275         	(1.805539e+01 1.006931e-03 2.531345e-21)	(1.800696e+01 1.029940e-03 0.000000e+00)	(4.842487e-02 -2.300966e-05 2.531345e-21)
2.3           	(1.802870e+01 6.291796e-04 2.521708e-21)	(1.799102e+01 6.530926e-04 0.000000e+00)	(3.768416e-02 -2.391301e-05 2.521708e-21)
2.325         	(1.800348e+01 2.484748e-04 2.511170e-21)	(1.797640e+01 2.748722e-04 0.000000e+00)	(2.707699e-02 -2.639746e-05 2.511170e-21)
2.35          	(1.797813e+01 1.966504e-04 2.500355e-21)	(1.796155e+01 2.262831e-04 0.000000e+00)	(1.657764e-02 -2.963274e-05 2.500355e-21)
2.375         	(1.795019e+01 3.629934e-04 2.532308e-21)	(1.794398e+01 3.951471e-04 0.000000e+00)	(6.208930e-03 -3.215366e-05 2.532308e-21)
2.4           	(1.791996e+01 -2.867819e-04 2.563330e-21)	(1.792398e+01 -2.511065e-04 0.000000e+00)	(-4.021532e-03 -3.567533e-05 2.563330e-21)
2.425         	(1.789483e+01 -5.225646e-05 2.580206e-21)	(1.790895e+01 -1.526800e-05 0.000000e+00)	(-1.411640e-02 -3.698846e-05 2.580206e-21)
2.45          	(1.786633e+01 -1.039015e-04 2.585458e-21)	(1.789042e+01 -6.700504e-05 0.000000e+00)	(-2.408829e-02 -3.689642e-05 2.585458e-21)
2.475         	(1.784096e+01 9.372414e-05 2.583565e-21)	(1.787490e+01 1.297578e-04 0.000000e+00)	(-3.394119e-02 -3.603368e-05 2.583565e-21)
2.5           	(1.781108e+01 -7.281022e-05 2.564510e-21)	(1.785476e+01 -3.692292e-05 0.000000e+00)	(-4.368253e-02 -3.588730e-05 2.564510e-21)
2.525         	(1.778689e+01 1.881300e-04 2.546527e-21)	(1.784019e+01 2.232873e-04 0.000000e+00)	(-5.329752e-02 -3.515728e-05 2.546527e-21)
2.55          	(1.775911e+01 -7.947451e-05 2.531080e-21)	(1.782192e+01 -4.415372e-05 0.000000e+00)	(-6.280827e-02 -3.532079e-05 2.531080e-21)
2.575         	(1.773223e+01 2.932912e-04 2.518038e-21)	(1.780444e+01 3.277762e-04 0.000000e+00)	(-7.221723e-02 -3.448503e-05 2.518038e-21)
2.6           	(1.770096e+01 -1.483220e-04 2.503322e-21)	(1.778248e+01 -1.132755e-04 0.000000e+00)	(-8.152138e-02 -3.504652e-05 2.503322e-21)
2.625         	(1.767424e+01 3.369636e-04 2.487359e-21)	(1.776496e+01 3.710422e-04 0.000000e+00)	(-9.072279e-02 -3.407861e-05 2.487359e-21)
2.65          	(1.764480e+01 -1.305880e-04 2.471555e-21)	(1.774463e+01 -9.612113e-05 0.000000e+00)	(-9.982852e-02 -3.446691e-05 2.471555e-21)
2.675         	(1.761453e+01 2.940446e-04 2.455714e-21)	(1.772337e+01 3.277681e-04 0.000000e+00)	(-1.088405e-01 -3.372353e-05 2.455714e-21)
2.7           	(1.759036e+01 -9.624673e-05 2.440824e-21)	(1.770811e+01 -6.194143e-05 0.000000e+00)	(-1.177533e-01 -3.430529e-05 2.440824e-21)
2.725         	(1.756722e+01 3.111629e-04 2.424054e-21)	(1.769381e+01 3.446982e-04 0.000000e+00)	(-1.265896e-01 -3.353530e-05 2.424054e-21)
2.75          	(1.753451e+01 -8.477339e-05 2.647768e-21)	(1.766985e+01 -5.075102e-05 0.000000e+00)	(-1.353402e-01 -3.402237e-05 2.647768e-21)
2.775         	(1.751284e+01 7.253980e-04 2.630427e-21)	(1.765684e+01 7.574349e-04 0.000000e+00)	(-1.439963e-01 -3.203688e-05 2.630427e-21)
2.8           	(1.748564e+01 2.271222e-04 2.613183e-21)	(1.763821e+01 2.590894e-04 0.000000e+00)	(-1.525677e-01 -3.196720e-05 2.613183e-21)
2.825         	(1.745562e+01 6.201373e-04 2.596118e-21)	(1.761668e+01 6.515766e-04 0.000000e+00)	(-1.610564e-01 -3.143930e-05 2.596118e-21)
2.85          	(1.742872e+01 1.373065e-04 2.579041e-21)	(1.759818e+01 1.697875e-04 0.000000e+00)	(-1.694537e-01 -3.248099e-05 2.579041e-21)
2.875         	(1.739930e+01 5.640271e-04 2.562267e-21)	(1.757707e+01 5.963607e-04 0.000000e+00)	(-1.777643e-01 -3.233361e-05 2.562267e-21)
2.9           	(1.736785e+01 1.514485e-04 2.545621e-21)	(1.755384e+01 1.844619e-04 0.000000e+00)	(-1.859926e-01 -3.301341e-05 2.545621e-21)
2.925         	(1.733230e+01 1.400678e-04 2.529051e-21)	(1.752643e+01 1.737580e-04 0.000000e+00)	(-1.941282e-01 -3.369021e-05 2.529051e-21)
2.95          	(1.730352e+01 -2.062769e-04 2.512749e-21)	(1.750570e+01 -1.711475e-04 0.000000e+00)	(-2.021775e-01 -3.512937e-05 2.512749e-21)
2.975         	(1.727390e+01 2.399891e-04 2.496820e-21)	(1.748405e+01 2.747018e-04 0.000000e+00)	(-2.101495e-01 -3.471263e-05 2.496820e-21)
3             	(1.724664e+01 -9.255441e-05 2.480840e-21)	(1.746467e+01 -5.771052e-05 0.000000e+00)	(-2.180348e-01 -3.484389e-05 2.480840e-21)
3.025         	(1.721681e+01 2.624955e-04 2.465184e-21)	(1.744265e+01 2.966419e-04 0.000000e+00)	(-2.258446e-01 -3.414638e-05 2.465184e-21)
3.05          	(1.718779e+01 -2.064074e-04 2.449556e-21)	(1.742137e+01 -1.712722e-04 0.000000e+00)	(-2.335781e-01 -3.513521e-05 2.449556e-21)
3.075         	(1.715714e+01 2.961743e-04 2.434240e-21)	(1.739837e+01 3.306765e-04 0.000000e+00)	(-2.412339e-01 -3.450221e-05 2.434240e-21)
3.1           	(1.712655e+01 -1.517352e-04 2.418966e-21)	(1.737536e+01 -1.167203e-04 0.000000e+00)	(-2.488106e-01 -3.501490e-05 2.418966e-21)
3.125         	(1.709761e+01 2.473416e-04 2.397150e-21)	(1.735393e+01 2.819068e-04 0.000000e+00)	(-2.563200e-01 -3.456524e-05 2.397150e-21)
3.15          	(1.706780e+01 -1.490357e-04 2.354590e-21)	(1.733156e+01 -1.137975e-04 0.000000e+00)	(-2.637614e-01 -3.523820e-05 2.354590e-21)
3.175         	(1.703624e+01 2.947333e-04 2.318737e-21)	(1.730737e+01 3.291126e-04 0.000000e+00)	(-2.711279e-01 -3.437930e-05 2.318737e-21)
3.2           	(1.700550e+01 -2.446140e-04 2.286636e-21)	(1.728391e+01 -2.094332e-04 0.000000e+00)	(-2.784137e-01 -3.518075e-05 2.286636e-21)
3.225         	(1.697667e+01 2.888791e-04 2.257519e-21)	(1.726228e+01 3.234252e-04 0.000000e+00)	(-2.856163e-01 -3.454606e-05 2.257519e-21)
3.25          	(1.694829e+01 -1.985760e-04 2.225977e-21)	(1.724103e+01 -1.632357e-04 0.000000e+00)	(-2.927427e-01 -3.534025e-05 2.225977e-21)
3.275         	(1.691987e+01 2.099696e-04 2.197791e-21)	(1.721966e+01 2.450924e-04 0.000000e+00)	(-2.997957e-01 -3.512273e-05 2.197791e-21)
3.3           	(1.688620e+01 -1.452408e-04 2.173976e-21)	(1.719298e+01 -1.097434e-04 0.000000e+00)	(-3.067784e-01 -3.549748e-05 2.173976e-21)
3.325         	(1.685779e+01 2.009559e-04 2.152773e-21)	(1.717147e+01 2.357661e-04 0.000000e+00)	(-3.136778e-01 -3.481021e-05 2.152773e-21)
3.35          	(1.682513e+01 -1.937500e-04 2.132831e-21)	(1.714563e+01 -1.583511e-04 0.000000e+00)	(-3.205064e-01 -3.539893e-05 2.132831e-21)
3.375         	(1.679577e+01 1.909472e-04 2.119877e-21)	(1.712304e+01 2.256431e-04 0.000000e+00)	(-3.272692e-01 -3.469581e-05 2.119877e-21)
3.4           	(1.676534e+01 -2.043792e-04 2.107010e-21)	(1.709930e+01 -1.690101e-04 0.000000e+00)	(-3.339665e-01 -3.536911e-05 2.107010e-21)
3.425         	(1.673614e+01 1.611326e-04 2.120220e-21)	(1.707673e+01 1.960005e-04 0.000000e+00)	(-3.405907e-01 -3.486797e-05 2.120220e-21)
3.45          	(1.670305e+01 -1.536762e-04 2.105026e-21)	(1.705020e+01 -1.186425e-04 0.000000e+00)	(-3.471448e-01 -3.503370e-05 2.105026e-21)
3.475         	(1.667159e+01 9.558071e-05 2.090611e-21)	(1.702521e+01 1.303155e-04 0.000000e+00)	(-3.536251e-01 -3.473481e-05 2.090611e-21)
3.5           	(1.664338e+01 -2.124959e-04 2.076589e-21)	(1.700341e+01 -1.772299e-04 0.000000e+00)	(-3.600299e-01 -3.526605e-05 2.076589e-21)
3.525         	(1.661553e+01 1.403943e-04 2.062944e-21)	(1.698189e+01 1.749401e-04 0.000000e+00)	(-3.663663e-01 -3.454572e-05 2.062944e-21)
3.55          	(1.658416e+01 -2.901070e-04 1.880805e-21)	(1.695680e+01 -2.548072e-04 0.000000e+00)	(-3.726441e-01 -3.529981e-05 1.880805e-21)
3.575         	(1.655644e+01 1.189077e-04 1.870335e-21)	(1.693529e+01 1.536232e-04 0.000000e+00)	(-3.788507e-01 -3.471553e-05 1.870335e-21)
3.6           	(1.652287e+01 -2.156051e-04 1.862372e-21)	(1.690786e+01 -1.807230e-04 0.000000e+00)	(-3.849882e-01 -3.488217e-05 1.862372e-21)
3.625         	(1.649318e+01 3.893549e-05 1.854561e-21)	(1.688423e+01 7.351052e-05 0.000000e+00)	(-3.910509e-01 -3.457502e-05 1.854561e-21)
3.65          	(1.646429e+01 -2.579000e-04 1.845548e-21)	(1.686133e+01 -2.227519e-04 0.000000e+00)	(-3.970408e-01 -3.514808e-05 1.845548e-21)
3.675         	(1.643272e+01 1.654956e-05 1.833337e-21)	(1.683568e+01 5.128810e-05 0.000000e+00)	(-4.029617e-01 -3.473854e-05 1.833337e-21)
3.7           	(1.640300e+01 -2.064562e-04 1.821775e-21)	(1.681181e+01 -1.717476e-04 0.000000e+00)	(-4.088085e-01 -3.470858e-05 1.821775e-21)
3.725         	(1.637243e+01 -3.981810e-05 1.811465e-21)	(1.678701e+01 -5.399611e-06 0.000000e+00)	(-4.145821e-01 -3.441849e-05 1.811465e-21)
3.75          	(1.634350e+01 -2.035937e-04 1.801564e-21)	(1.676378e+01 -1.690365e-04 0.000000e+00)	(-4.202824e-01 -3.455716e-05 1.801564e-21)
3.775         	(1.631724e+01 -9.428940e-05 1.792311e-21)	(1.674314e+01 -5.984919e-05 0.000000e+00)	(-4.259080e-01 -3.444021e-05 1.792311e-21)
3.8           	(1.628853e+01 -2.476022e-04 1.783586e-21)	(1.672000e+01 -2.129320e-04 0.000000e+00)	(-4.314653e-01 -3.467012e-05 1.783586e-21)
3.825         	(1.626024e+01 -8.245610e-05 1.775465e-21)	(1.669719e+01 -4.804886e-05 0.000000e+00)	(-4.369532e-01 -3.440724e-05 1.775465e-21)
3.85          	(1.623028e+01 -2.492676e-04 1.642778e-21)	(1.667265e+01 -2.150063e-04 0.000000e+00)	(-4.423706e-01 -3.426133e-05 1.642778e-21)
3.875         	(1.620217e+01 -1.225630e-04 1.635229e-21)	(1.664989e+01 -8.858874e-05 0.000000e+00)	(-4.477144e-01 -3.397424e-05 1.635229e-21)
3.9           	(1.617338e+01 -2.619274e-04 1.629033e-21)	(1.662637e+01 -2.277318e-04 0.000000e+00)	(-4.529902e-01 -3.419561e-05 1.629033e-21)
3.925         	(1.614692e+01 -1.132984e-04 1.601118e-21)	(1.660511e+01 -7.950979e-05 0.000000e+00)	(-4.581956e-01 -3.378856e-05 1.601118e-21)
3.95          	(1.611916e+01 -3.117579e-04 1.604685e-21)	(1.658249e+01 -2.777419e-04 0.000000e+00)	(-4.633305e-01 -3.401596e-05 1.604685e-21)
3.975         	(1.608697e+01 5.948175e-04 1.620726e-21)	(1.655538e+01 6.278343e-04 0.000000e+00)	(-4.684063e-01 -3.301678e-05 1.620726e-21)
4             	(1.605746e+01 4.130966e-04 1.667131e-21)	(1.653087e+01 4.459622e-04 0.000000e+00)	(-4.734091e-01 -3.286563e-05 1.667131e-21)
4.025         	(1.603334e+01 5.290047e-04 1.698273e-21)	(1.651168e+01 5.615933e-04 0.000000e+00)	(-4.783324e-01 -3.258858e-05 1.698273e-21)
4.05          	(1.601032e+01 4.264396e-04 1.721577e-21)	(1.649350e+01 4.586616e-04 0.000000e+00)	(-4.831839e-01 -3.222198e-05 1.721577e-21)
4.075         	(1.598069e+01 5.639772e-04 1.742038e-21)	(1.646865e+01 5.956444e-04 0.000000e+00)	(-4.879694e-01 -3.166717e-05 1.742038e-21)
4.1           	(1.595584e+01 5.139282e-04 1.758417e-21)	(1.644852e+01 5.448876e-04 0.000000e+00)	(-4.926788e-01 -3.095933e-05 1.758417e-21)
4.125         	(1.592964e+01 5.507825e-04 1.767958e-21)	(1.642695e+01 5.814373e-04 0.000000e+00)	(-4.973133e-01 -3.065483e-05 1.767958e-21)
4.15          	(1.590411e+01 5.147201e-04 1.897629e-21)	(1.640598e+01 5.455251e-04 0.000000e+00)	(-5.018741e-01 -3.080498e-05 1.897629e-21)
4.175         	(1.587885e+01 5.699433e-04 1.901464e-21)	(1.638522e+01 6.004371e-04 0.000000e+00)	(-5.063679e-01 -3.049382e-05 1.901464e-21)
4.2           	(1.585481e+01 5.572627e-04 1.904124e-21)	(1.636560e+01 5.877958e-04 0.000000e+00)	(-5.107919e-01 -3.053307e-05 1.904124e-21)
4.225         	(1.582907e+01 6.197821e-04 1.905623e-21)	(1.634422e+01 6.502367e-04 0.000000e+00)	(-5.151486e-01 -3.045465e-05 1.905623e-21)
4.25          	(1.580442e+01 5.869638e-04 1.906293e-21)	(1.632385e+01 6.176088e-04 0.000000e+00)	(-5.194306e-01 -3.064499e-05 1.906293e-21)
4.275         	(1.578082e+01 6.533282e-04 1.901574e-21)	(1.630445e+01 6.840066e-04 0.000000e+00)	(-5.236365e-01 -3.067843e-05 1.901574e-21)
4.3           	(1.575810e+01 6.271707e-04 1.864653e-21)	(1.628587e+01 6.578706e-04 0.000000e+00)	(-5.277666e-01 -3.069994e-05 1.864653e-21)
4.325         	(1.573520e+01 7.172082e-04 1.836816e-21)	(1.626702e+01 7.477267e-04 0.000000e+00)	(-5.318237e-01 -3.051851e-05 1.836816e-21)
4.35          	(1.571364e+01 6.501408e-04 1.814721e-21)	(1.624945e+01 6.806842e-04 0.000000e+00)	(-5.358078e-01 -3.054345e-05 1.814721e-21)
4.375         	(1.569095e+01 7.588854e-04 1.794839e-21)	(1.623067e+01 7.891470e-04 0.000000e+00)	(-5.397239e-01 -3.026160e-05 1.794839e-21)
4.4           	(1.566981e+01 6.878493e-04 1.773943e-21)	(1.621338e+01 7.181478e-04 0.000000e+00)	(-5.435703e-01 -3.029845e-05 1.773943e-21)
4.425         	(1.564759e+01 8.272063e-04 1.754955e-21)	(1.619493e+01 8.569438e-04 0.000000e+00)	(-5.473427e-01 -2.973743e-05 1.754955e-21)
4.45          	(1.562606e+01 6.993513e-04 1.747806e-21)	(1.617710e+01 7.291218e-04 0.000000e+00)	(-5.510398e-01 -2.977050e-05 1.747806e-21)
4.475         	(1.560695e+01 8.790653e-04 1.742370e-21)	(1.616162e+01 9.082987e-04 0.000000e+00)	(-5.546633e-01 -2.923342e-05 1.742370e-21)
4.5           	(1.558680e+01 7.294064e-04 1.736977e-21)	(1.614501e+01 7.586087e-04 0.000000e+00)	(-5.582136e-01 -2.920230e-05 1.736977e-21)
4.525         	(1.556587e+01 9.335128e-04 1.731611e-21)	(1.612757e+01 9.618994e-04 0.000000e+00)	(-5.616911e-01 -2.838664e-05 1.731611e-21)
4.55          	(1.554866e+01 7.144184e-04 1.726244e-21)	(1.611375e+01 7.427868e-04 0.000000e+00)	(-5.650934e-01 -2.836845e-05 1.726244e-21)
4.575         	(1.552916e+01 1.028235e-03 1.721229e-21)	(1.609758e+01 1.055346e-03 0.000000e+00)	(-5.684226e-01 -2.711057e-05 1.721229e-21)
4.6           	(1.551521e+01 7.243985e-04 1.717540e-21)	(1.608689e+01 7.515611e-04 0.000000e+00)	(-5.716739e-01 -2.716263e-05 1.717540e-21)
4.625         	(1.549627e+01 1.092088e-03 1.712369e-21)	(1.607113e+01 1.118013e-03 0.000000e+00)	(-5.748595e-01 -2.592476e-05 1.712369e-21)
4.65          	(1.547898e+01 7.591911e-04 1.707438e-21)	(1.605696e+01 7.847339e-04 0.000000e+00)	(-5.779746e-01 -2.554284e-05 1.707438e-21)
4.675         	(1.546392e+01 1.082861e-03 1.702712e-21)	(1.604493e+01 1.107264e-03 0.000000e+00)	(-5.810133e-01 -2.440344e-05 1.702712e-21)
4.7           	(1.544888e+01 8.004101e-04 1.697782e-21)	(1.603286e+01 8.240457e-04 0.000000e+00)	(-5.839794e-01 -2.363561e-05 1.697782e-21)
4.725         	(1.543287e+01 1.132665e-03 1.692954e-21)	(1.601975e+01 1.154624e-03 0.000000e+00)	(-5.868737e-01 -2.195842e-05 1.692954e-21)
4.75          	(1.542077e+01 8.174648e-04 1.765720e-21)	(1.601046e+01 8.394403e-04 0.000000e+00)	(-5.896945e-01 -2.197548e-05 1.765720e-21)
4.775         	(1.540728e+01 1.143811e-03 1.684853e-21)	(1.599973e+01 1.164085e-03 0.000000e+00)	(-5.924491e-01 -2.027424e-05 1.684853e-21)
4.8           	(1.539169e+01 8.230591e-04 1.680243e-21)	(1.598684e+01 8.424705e-04 0.000000e+00)	(-5.951439e-01 -1.941142e-05 1.680243e-21)
4.825         	(1.538174e+01 1.204346e-03 1.675784e-21)	(1.597950e+01 1.221887e-03 0.000000e+00)	(-5.977608e-01 -1.754103e-05 1.675784e-21)
4.85          	(1.537112e+01 8.505305e-04 1.671921e-21)	(1.597146e+01 8.672365e-04 0.000000e+00)	(-6.003319e-01 -1.670604e-05 1.671921e-21)
4.875         	(1.535837e+01 1.186515e-03 1.668654e-21)	(1.596121e+01 1.201298e-03 0.000000e+00)	(-6.028374e-01 -1.478257e-05 1.668654e-21)
4.9           	(1.534945e+01 8.574719e-04 1.665478e-21)	(1.595471e+01 8.712451e-04 0.000000e+00)	(-6.052627e-01 -1.377324e-05 1.665478e-21)
4.925         	(1.533931e+01 1.202498e-03 1.447053e-21)	(1.594693e+01 1.214216e-03 0.000000e+00)	(-6.076122e-01 -1.171788e-05 1.447053e-21)
4.95          	(1.533054e+01 8.730823e-04 1.445045e-21)	(1.594043e+01 8.836409e-04 0.000000e+00)	(-6.098900e-01 -1.055858e-05 1.445045e-21)
4.975         	(1.532220e+01 1.197240e-03 1.442735e-21)	(1.593429e+01 1.205413e-03 0.000000e+00)	(-6.120949e-01 -8.173143e-06 1.442735e-21)
5             	(1.531605e+01 8.664639e-04 1.440406e-21)	(1.593027e+01 8.730350e-04 0.000000e+00)	(-6.142194e-01 -6.571100e-06 1.440406e-21)
5.025         	(1.530927e+01 1.195725e-03 1.437748e-21)	(1.592554e+01 1.199902e-03 0.000000e+00)	(-6.162677e-01 -4.177530e-06 1.437748e-21)
5.05          	(1.530296e+01 8.542950e-04 1.433635e-21)	(1.592120e+01 8.568769e-04 0.000000e+00)	(-6.182387e-01 -2.581925e-06 1.433635e-21)
5.075         	(1.529876e+01 1.213512e-03 1.464286e-21)	(1.591889e+01 1.213849e-03 0.000000e+00)	(-6.201290e-01 -3.365687e-07 1.464286e-21)
5.1           	(1.529598e+01 8.319046e-04 1.517447e-21)	(1.591792e+01 8.307827e-04 0.000000e+00)	(-6.219437e-01 1.121889e-06 1.517447e-21)
5.125         	(1.529375e+01 1.201315e-03 1.555171e-21)	(1.591744e+01 1.197379e-03 0.000000e+00)	(-6.236896e-01 3.935725e-06 1.555171e-21)
5.15          	(1.529221e+01 8.132514e-04 1.585506e-21)	(1.591758e+01 8.073812e-04 0.000000e+00)	(-6.253709e-01 5.870175e-06 1.585506e-21)
5.175         	(1.528810e+01 1.163383e-03 1.612504e-21)	(1.591507e+01 1.154514e-03 0.000000e+00)	(-6.269701e-01 8.868698e-06 1.612504e-21)
5.2           	(1.528683e+01 8.571874e-04 1.637769e-21)	(1.591533e+01 8.464777e-04 0.000000e+00)	(-6.284992e-01 1.070978e-05 1.637769e-21)
5.225         	(1.528874e+01 1.114720e-03 1.669588e-21)	(1.591873e+01 1.101152e-03 0.000000e+00)	(-6.299883e-01 1.356867e-05 1.669588e-21)
5.25          	(1.528949e+01 7.785245e-04 1.896007e-21)	(1.592091e+01 7.627718e-04 0.000000e+00)	(-6.314258e-01 1.575269e-05 1.896007e-21)
5.275         	(1.528890e+01 1.201406e-03 1.892793e-21)	(1.592169e+01 1.184494e-03 0.000000e+00)	(-6.327855e-01 1.691201e-05 1.892793e-21)
5.3           	(1.528755e+01 7.812834e-04 1.891935e-21)	(1.592159e+01 7.636420e-04 0.000000e+00)	(-6.340361e-01 1.764136e-05 1.891935e-21)