# Force       
# CofR        : (0.000000e+00 0.000000e+00 0.000000e+00)
#
# Time        	(total_x total_y total_z)	(pressure_x pressure_y pressure_z)	(viscous_x viscous_y viscous_z)
6.025         	(1.571811e+01 2.876767e-03 1.539512e-21)	(1.635627e+01 2.606990e-03 0.000000e+00)	(-6.381636e-01 2.697772e-04 1.539512e-21)
6.05          	(1.574460e+01 2.517104e-03 1.544049e-21)	(1.638188e+01 2.246475e-03 0.000000e+00)	(-6.372775e-01 2.706285e-04 1.544049e-21)
6.075         	(1.577404e+01 2.892558e-03 1.557532e-21)	(1.641037e+01 2.619976e-03 0.000000e+00)	(-6.363257e-01 2.725823e-04 1.557532e-21)
6.1           	(1.580606e+01 2.766261e-03 1.569142e-21)	(1.644136e+01 2.491829e-03 0.000000e+00)	(-6.353098e-01 2.744314e-04 1.569142e-21)
6.125         	(1.583684e+01 2.593509e-03 1.580536e-21)	(1.647107e+01 2.317799e-03 0.000000e+00)	(-6.342310e-01 2.757104e-04 1.580536e-21)
6.15          	(1.587088e+01 2.841019e-03 1.576843e-21)	(1.650396e+01 2.563318e-03 0.000000e+00)	(-6.330745e-01 2.777018e-04 1.576843e-21)
6.175         	(1.590741e+01 2.604573e-03 1.580194e-21)	(1.653925e+01 2.325233e-03 0.000000e+00)	(-6.318372e-01 2.793403e-04 1.580194e-21)
6.2           	(1.593347e+01 2.618642e-03 1.583654e-21)	(1.656404e+01 2.338847e-03 0.000000e+00)	(-6.305660e-01 2.797950e-04 1.583654e-21)
6.225         	(1.596383e+01 2.786454e-03 1.586940e-21)	(1.659309e+01 2.504466e-03 0.000000e+00)	(-6.292568e-01 2.819877e-04 1.586940e-21)
6.25          	(1.599745e+01 2.574351e-03 1.590450e-21)	(1.662534e+01 2.290959e-03 0.000000e+00)	(-6.278911e-01 2.833927e-04 1.590450e-21)
6.275         	(1.603555e+01 2.708818e-03 1.592776e-21)	(1.666200e+01 2.423614e-03 0.000000e+00)	(-6.264459e-01 2.852032e-04 1.592776e-21)
6.3           	(1.607124e+01 2.491157e-03 1.596041e-21)	(1.669618e+01 2.205299e-03 0.000000e+00)	(-6.249359e-01 2.858581e-04 1.596041e-21)
6.325         	(1.610646e+01 2.609861e-03 1.592252e-21)	(1.672983e+01 2.322996e-03 0.000000e+00)	(-6.233691e-01 2.868654e-04 1.592252e-21)
6.35          	(1.615072e+01 2.564195e-03 1.602251e-21)	(1.677245e+01 2.276293e-03 0.000000e+00)	(-6.217307e-01 2.879022e-04 1.602251e-21)
6.375         	(1.618907e+01 2.593527e-03 1.605730e-21)	(1.680910e+01 2.303897e-03 0.000000e+00)	(-6.200252e-01 2.896297e-04 1.605730e-21)
6.4           	(1.622978e+01 2.490458e-03 1.608842e-21)	(1.684804e+01 2.199734e-03 0.000000e+00)	(-6.182593e-01 2.907235e-04 1.608842e-21)
6.425         	(1.627150e+01 2.486068e-03 1.611670e-21)	(1.688792e+01 2.194705e-03 0.000000e+00)	(-6.164211e-01 2.913635e-04 1.611670e-21)
6.45          	(1.630527e+01 2.577498e-03 1.614911e-21)	(1.691982e+01 2.285123e-03 0.000000e+00)	(-6.145494e-01 2.923747e-04 1.614911e-21)
6.475         	(1.634851e+01 2.496625e-03 1.618025e-21)	(1.696113e+01 2.203414e-03 0.000000e+00)	(-6.126258e-01 2.932114e-04 1.618025e-21)
6.5           	(1.638585e+01 2.520611e-03 1.621285e-21)	(1.699650e+01 2.226436e-03 0.000000e+00)	(-6.106513e-01 2.941750e-04 1.621285e-21)
6.525         	(1.643336e+01 2.550484e-03 1.625885e-21)	(1.704198e+01 2.254790e-03 0.000000e+00)	(-6.086156e-01 2.956935e-04 1.625885e-21)
6.55          	(1.647671e+01 2.471285e-03 1.599651e-21)	(1.708323e+01 2.174348e-03 0.000000e+00)	(-6.065190e-01 2.969372e-04 1.599651e-21)
6.575         	(1.651857e+01 2.361007e-03 1.632343e-21)	(1.712295e+01 2.064324e-03 0.000000e+00)	(-6.043767e-01 2.966827e-04 1.632343e-21)
6.6           	(1.657126e+01 2.493718e-03 1.635780e-21)	(1.717343e+01 2.196495e-03 0.000000e+00)	(-6.021688e-01 2.972230e-04 1.635780e-21)
6.625         	(1.661769e+01 2.412969e-03 1.639492e-21)	(1.721760e+01 2.114685e-03 0.000000e+00)	(-5.999103e-01 2.982843e-04 1.639492e-21)
6.65          	(1.666799e+01 2.358083e-03 1.643494e-21)	(1.726559e+01 2.059704e-03 0.000000e+00)	(-5.975985e-01 2.983792e-04 1.643494e-21)
6.675         	(1.671774e+01 2.336594e-03 1.647247e-21)	(1.731296e+01 2.037999e-03 0.000000e+00)	(-5.952192e-01 2.985943e-04 1.647247e-21)
6.7           	(1.676731e+01 2.315111e-03 1.651165e-21)	(1.736010e+01 2.016121e-03 0.000000e+00)	(-5.927935e-01 2.989892e-04 1.651165e-21)
6.725         	(1.680811e+01 2.275844e-03 1.655110e-21)	(1.739846e+01 1.976835e-03 0.000000e+00)	(-5.903483e-01 2.990090e-04 1.655110e-21)
6.75          	(1.686255e+01 2.349077e-03 1.661101e-21)	(1.745040e+01 2.049793e-03 0.000000e+00)	(-5.878500e-01 2.992845e-04 1.661101e-21)
6.775         	(1.690694e+01 2.252364e-03 1.663793e-21)	(1.749225e+01 1.952751e-03 0.000000e+00)	(-5.853134e-01 2.996133e-04 1.663793e-21)
6.8           	(1.696107e+01 2.312433e-03 1.668356e-21)	(1.754380e+01 2.012749e-03 0.000000e+00)	(-5.827200e-01 2.996840e-04 1.668356e-21)
6.825         	(1.701485e+01 2.266376e-03 1.672652e-21)	(1.759492e+01 1.966925e-03 0.000000e+00)	(-5.800684e-01 2.994506e-04 1.672652e-21)
6.85          	(1.706624e+01 2.249061e-03 1.677216e-21)	(1.764362e+01 1.949632e-03 0.000000e+00)	(-5.773826e-01 2.994287e-04 1.677216e-21)
6.875         	(1.712907e+01 2.301064e-03 1.681833e-21)	(1.770371e+01 2.000854e-03 0.000000e+00)	(-5.746396e-01 3.002100e-04 1.681833e-21)
6.9           	(1.718362e+01 2.102743e-03 1.686541e-21)	(1.775547e+01 1.803184e-03 0.000000e+00)	(-5.718476e-01 2.995590e-04 1.686541e-21)
6.925         	(1.723807e+01 2.316183e-03 1.691449e-21)	(1.780708e+01 2.016464e-03 0.000000e+00)	(-5.690115e-01 2.997190e-04 1.691449e-21)
6.95          	(1.729639e+01 2.187263e-03 1.696277e-21)	(1.786251e+01 1.887518e-03 0.000000e+00)	(-5.661203e-01 2.997457e-04 1.696277e-21)
6.975         	(1.735104e+01 2.184607e-03 1.701952e-21)	(1.791423e+01 1.885220e-03 0.000000e+00)	(-5.631889e-01 2.993870e-04 1.701952e-21)
7             	(1.740604e+01 2.117687e-03 1.706433e-21)	(1.796626e+01 1.819099e-03 0.000000e+00)	(-5.602258e-01 2.985877e-04 1.706433e-21)
7.025         	(1.746119e+01 2.180175e-03 1.711541e-21)	(1.801842e+01 1.881992e-03 0.000000e+00)	(-5.572270e-01 2.981832e-04 1.711541e-21)
7.05          	(1.751909e+01 2.117795e-03 1.716895e-21)	(1.807328e+01 1.819978e-03 0.000000e+00)	(-5.541878e-01 2.978164e-04 1.716895e-21)
7.075         	(1.757605e+01 2.178321e-03 1.722277e-21)	(1.812716e+01 1.880756e-03 0.000000e+00)	(-5.511127e-01 2.975653e-04 1.722277e-21)
7.1           	(1.763773e+01 2.128296e-03 1.727850e-21)	(1.818572e+01 1.831133e-03 0.000000e+00)	(-5.479923e-01 2.971622e-04 1.727850e-21)
7.125         	(1.769723e+01 2.207165e-03 1.733263e-21)	(1.824206e+01 1.910187e-03 0.000000e+00)	(-5.448338e-01 2.969771e-04 1.733263e-21)
7.15          	(1.776289e+01 2.011486e-03 1.739847e-21)	(1.830452e+01 1.715807e-03 0.000000e+00)	(-5.416277e-01 2.956786e-04 1.739847e-21)
7.175         	(1.782531e+01 2.198672e-03 1.744302e-21)	(1.836369e+01 1.903330e-03 0.000000e+00)	(-5.383764e-01 2.953418e-04 1.744302e-21)
7.2           	(1.789019e+01 2.195181e-03 1.748752e-21)	(1.842527e+01 1.900051e-03 0.000000e+00)	(-5.350767e-01 2.951296e-04 1.748752e-21)
7.225         	(1.794948e+01 2.114592e-03 1.770468e-21)	(1.848122e+01 1.820462e-03 0.000000e+00)	(-5.317403e-01 2.941296e-04 1.770468e-21)
7.25          	(1.801321e+01 2.097536e-03 1.773859e-21)	(1.854156e+01 1.804678e-03 0.000000e+00)	(-5.283538e-01 2.928582e-04 1.773859e-21)
7.275         	(1.807807e+01 2.102121e-03 1.777215e-21)	(1.860299e+01 1.810367e-03 0.000000e+00)	(-5.249217e-01 2.917546e-04 1.777215e-21)
7.3           	(1.813904e+01 2.156193e-03 1.780546e-21)	(1.866050e+01 1.864851e-03 0.000000e+00)	(-5.214660e-01 2.913418e-04 1.780546e-21)
7.325         	(1.820354e+01 1.922980e-03 1.783916e-21)	(1.872151e+01 1.633452e-03 0.000000e+00)	(-5.179705e-01 2.895284e-04 1.783916e-21)
7.35          	(1.826390e+01 2.198117e-03 1.787358e-21)	(1.877834e+01 1.909203e-03 0.000000e+00)	(-5.144455e-01 2.889142e-04 1.787358e-21)
7.375         	(1.833184e+01 1.938938e-03 1.790763e-21)	(1.884272e+01 1.651216e-03 0.000000e+00)	(-5.108834e-01 2.877213e-04 1.790763e-21)
7.4           	(1.839696e+01 2.222550e-03 1.794281e-21)	(1.890425e+01 1.935186e-03 0.000000e+00)	(-5.072883e-01 2.873649e-04 1.794281e-21)
7.425         	(1.846878e+01 2.018596e-03 1.797817e-21)	(1.897244e+01 1.732076e-03 0.000000e+00)	(-5.036546e-01 2.865200e-04 1.797817e-21)
7.45          	(1.853836e+01 2.014738e-03 1.801459e-21)	(1.903834e+01 1.729082e-03 0.000000e+00)	(-4.999818e-01 2.856563e-04 1.801459e-21)
7.475         	(1.861325e+01 2.020114e-03 1.805109e-21)	(1.910951e+01 1.735442e-03 0.000000e+00)	(-4.962661e-01 2.846726e-04 1.805109e-21)
7.5           	(1.867660e+01 2.018792e-03 1.808785e-21)	(1.916913e+01 1.735211e-03 0.000000e+00)	(-4.925305e-01 2.835812e-04 1.808785e-21)
7.525         	(1.874672e+01 1.967951e-03 1.812687e-21)	(1.923549e+01 1.685802e-03 0.000000e+00)	(-4.887724e-01 2.821484e-04 1.812687e-21)
7.55          	(1.881685e+01 1.997624e-03 1.816511e-21)	(1.930183e+01 1.716804e-03 0.000000e+00)	(-4.849811e-01 2.808199e-04 1.816511e-21)
7.575         	(1.888897e+01 2.040809e-03 1.820358e-21)	(1.937012e+01 1.760822e-03 0.000000e+00)	(-4.811581e-01 2.799874e-04 1.820358e-21)
7.6           	(1.895352e+01 1.994057e-03 1.824130e-21)	(1.943084e+01 1.715105e-03 0.000000e+00)	(-4.773210e-01 2.789521e-04 1.824130e-21)
7.625         	(1.902639e+01 1.915490e-03 1.827958e-21)	(1.949985e+01 1.638435e-03 0.000000e+00)	(-4.734596e-01 2.770541e-04 1.827958e-21)
7.65          	(1.909389e+01 1.934107e-03 1.831447e-21)	(1.956347e+01 1.659195e-03 0.000000e+00)	(-4.695734e-01 2.749121e-04 1.831447e-21)
7.675         	(1.916781e+01 2.151162e-03 1.877390e-21)	(1.963346e+01 1.876378e-03 0.000000e+00)	(-4.656482e-01 2.747844e-04 1.877390e-21)
7.7           	(1.924118e+01 1.957836e-03 1.978287e-21)	(1.970288e+01 1.683251e-03 0.000000e+00)	(-4.616939e-01 2.745845e-04 1.978287e-21)
7.725         	(1.931855e+01 2.122256e-03 2.020274e-21)	(1.977627e+01 1.848113e-03 0.000000e+00)	(-4.577225e-01 2.741427e-04 2.020274e-21)
7.75          	(1.939737e+01 1.747111e-03 2.021296e-21)	(1.985109e+01 1.475284e-03 0.000000e+00)	(-4.537181e-01 2.718271e-04 2.021296e-21)
7.775         	(1.946683e+01 2.056775e-03 2.022392e-21)	(1.991653e+01 1.786147e-03 0.000000e+00)	(-4.496996e-01 2.706285e-04 2.022392e-21)
7.8           	(1.953969e+01 1.883338e-03 2.023985e-21)	(1.998536e+01 1.614035e-03 0.000000e+00)	(-4.456729e-01 2.693036e-04 2.023985e-21)
7.825         	(1.961435e+01 2.019210e-03 2.025355e-21)	(2.005597e+01 1.751056e-03 0.000000e+00)	(-4.416178e-01 2.681540e-04 2.025355e-21)
7.85          	(1.969063e+01 1.949347e-03 2.023390e-21)	(2.012816e+01 1.682085e-03 0.000000e+00)	(-4.375361e-01 2.672621e-04 2.023390e-21)
7.875         	(1.976557e+01 2.046525e-03 2.021872e-21)	(2.019900e+01 1.780144e-03 0.000000e+00)	(-4.334378e-01 2.663815e-04 2.021872e-21)
7.9           	(1.983786e+01 1.931317e-03 2.018953e-21)	(2.026719e+01 1.666354e-03 0.000000e+00)	(-4.293300e-01 2.649633e-04 2.018953e-21)
7.925         	(1.991449e+01 2.000339e-03 2.017722e-21)	(2.033969e+01 1.736641e-03 0.000000e+00)	(-4.252062e-01 2.636979e-04 2.017722e-21)
7.95          	(1.998546e+01 1.943882e-03 2.016322e-21)	(2.040653e+01 1.681428e-03 0.000000e+00)	(-4.210718e-01 2.624541e-04 2.016322e-21)
7.975         	(2.006346e+01 1.911997e-03 2.014882e-21)	(2.048038e+01 1.651240e-03 0.000000e+00)	(-4.169217e-01 2.607568e-04 2.014882e-21)
8             	(2.014689e+01 1.966110e-03 2.013379e-21)	(2.055963e+01 1.706786e-03 0.000000e+00)	(-4.127425e-01 2.593235e-04 2.013379e-21)
8.025         	(2.022641e+01 1.994412e-03 2.012020e-21)	(2.063495e+01 1.736183e-03 0.000000e+00)	(-4.085421e-01 2.582286e-04 2.012020e-21)
8.05          	(2.030527e+01 1.931499e-03 2.010210e-21)	(2.070959e+01 1.674619e-03 0.000000e+00)	(-4.043289e-01 2.568798e-04 2.010210e-21)
8.075         	(2.038178e+01 1.938427e-03 2.008704e-21)	(2.078189e+01 1.682829e-03 0.000000e+00)	(-4.001179e-01 2.555977e-04 2.008704e-21)
8.1           	(2.045907e+01 1.970770e-03 2.007306e-21)	(2.085496e+01 1.716352e-03 0.000000e+00)	(-3.958989e-01 2.544190e-04 2.007306e-21)
8.125         	(2.053842e+01 1.977560e-03 2.005636e-21)	(2.093008e+01 1.724215e-03 0.000000e+00)	(-3.916634e-01 2.533452e-04 2.005636e-21)
8.15          	(2.061942e+01 1.934366e-03 2.004076e-21)	(2.100684e+01 1.682264e-03 0.000000e+00)	(-3.874136e-01 2.521021e-04 2.004076e-21)
8.175         	(2.069337e+01 1.889414e-03 2.002281e-21)	(2.107654e+01 1.638645e-03 0.000000e+00)	(-3.831642e-01 2.507686e-04 2.002281e-21)
8.2           	(2.077455e+01 2.087099e-03 2.000391e-21)	(2.115346e+01 1.836839e-03 0.000000e+00)	(-3.789073e-01 2.502595e-04 2.000391e-21)
8.225         	(2.084805e+01 1.854583e-03 1.998394e-21)	(2.122271e+01 1.605851e-03 0.000000e+00)	(-3.746504e-01 2.487317e-04 1.998394e-21)
8.25          	(2.092900e+01 2.178860e-03 1.996478e-21)	(2.129939e+01 1.930388e-03 0.000000e+00)	(-3.703846e-01 2.484727e-04 1.996478e-21)
8.275         	(2.101527e+01 1.892481e-03 1.994240e-21)	(2.138136e+01 1.645321e-03 0.000000e+00)	(-3.660947e-01 2.471605e-04 1.994240e-21)
8.3           	(2.109773e+01 2.128672e-03 1.997572e-21)	(2.145952e+01 1.882148e-03 0.000000e+00)	(-3.617878e-01 2.465248e-04 1.997572e-21)
8.325         	(2.117890e+01 1.940753e-03 1.995528e-21)	(2.153637e+01 1.695415e-03 0.000000e+00)	(-3.574784e-01 2.453380e-04 1.995528e-21)
8.35          	(2.125985e+01 2.071515e-03 1.993406e-21)	(2.161302e+01 1.827207e-03 0.000000e+00)	(-3.531749e-01 2.443079e-04 1.993406e-21)
8.375         	(2.133762e+01 1.909331e-03 1.991452e-21)	(2.168650e+01 1.666511e-03 0.000000e+00)	(-3.488772e-01 2.428197e-04 1.991452e-21)
8.4           	(2.141974e+01 1.972406e-03 1.989032e-21)	(2.176431e+01 1.731034e-03 0.000000e+00)	(-3.445699e-01 2.413718e-04 1.989032e-21)
8.425         	(2.150313e+01 1.919437e-03 1.985407e-21)	(2.184338e+01 1.679604e-03 0.000000e+00)	(-3.402544e-01 2.398335e-04 1.985407e-21)
8.45          	(2.158231e+01 2.266872e-03 1.980035e-21)	(2.191824e+01 2.026822e-03 0.000000e+00)	(-3.359299e-01 2.400498e-04 1.980035e-21)
8.475         	(2.166591e+01 2.074407e-03 1.956608e-21)	(2.199751e+01 1.834980e-03 0.000000e+00)	(-3.316007e-01 2.394275e-04 1.956608e-21)
8.5           	(2.174102e+01 2.212652e-03 1.923070e-21)	(2.206830e+01 1.973759e-03 0.000000e+00)	(-3.272809e-01 2.388933e-04 1.923070e-21)
8.525         	(2.182773e+01 2.121587e-03 1.918260e-21)	(2.215068e+01 1.883372e-03 0.000000e+00)	(-3.229546e-01 2.382150e-04 1.918260e-21)
8.55          	(2.191429e+01 2.200278e-03 1.913254e-21)	(2.223290e+01 1.962568e-03 0.000000e+00)	(-3.186107e-01 2.377101e-04 1.913254e-21)
8.575         	(2.199866e+01 2.107323e-03 1.907956e-21)	(2.231292e+01 1.870601e-03 0.000000e+00)	(-3.142610e-01 2.367222e-04 1.907956e-21)
8.6           	(2.208208e+01 2.250739e-03 1.902440e-21)	(2.239199e+01 2.014440e-03 0.000000e+00)	(-3.099154e-01 2.362996e-04 1.902440e-21)
8.625         	(2.216534e+01 2.113436e-03 1.975791e-21)	(2.247092e+01 1.878264e-03 0.000000e+00)	(-3.055808e-01 2.351722e-04 1.975791e-21)
8.65          	(2.224618e+01 2.117148e-03 1.892192e-21)	(2.254743e+01 1.883269e-03 0.000000e+00)	(-3.012542e-01 2.338794e-04 1.892192e-21)
8.675         	(2.232961e+01 2.234589e-03 1.885741e-21)	(2.262653e+01 2.001384e-03 0.000000e+00)	(-2.969219e-01 2.332046e-04 1.885741e-21)
8.7           	(2.241265e+01 2.231151e-03 1.879128e-21)	(2.270524e+01 1.998328e-03 0.000000e+00)	(-2.925913e-01 2.328224e-04 1.879128e-21)
8.725         	(2.249071e+01 2.157178e-03 1.877195e-21)	(2.277899e+01 1.925342e-03 0.000000e+00)	(-2.882839e-01 2.318369e-04 1.877195e-21)
8.75          	(2.257374e+01 2.263515e-03 1.875770e-21)	(2.285773e+01 2.032488e-03 0.000000e+00)	(-2.839913e-01 2.310275e-04 1.875770e-21)
8.775         	(2.265212e+01 2.227422e-03 1.874588e-21)	(2.293183e+01 1.996988e-03 0.000000e+00)	(-2.797121e-01 2.304342e-04 1.874588e-21)
8.8           	(2.274175e+01 2.306679e-03 1.872978e-21)	(2.301718e+01 2.076578e-03 0.000000e+00)	(-2.754287e-01 2.301017e-04 1.872978e-21)
8.825         	(2.282605e+01 2.269289e-03 1.870779e-21)	(2.309718e+01 2.039785e-03 0.000000e+00)	(-2.711342e-01 2.295039e-04 1.870779e-21)
8.85          	(2.291222e+01 2.515665e-03 1.868644e-21)	(2.317906e+01 2.285369e-03 0.000000e+00)	(-2.668338e-01 2.302964e-04 1.868644e-21)
8.875         	(2.299666e+01 2.268539e-03 1.866335e-21)	(2.325920e+01 2.038921e-03 0.000000e+00)	(-2.625384e-01 2.296183e-04 1.866335e-21)
8.9           	(2.307743e+01 2.369355e-03 1.864349e-21)	(2.333570e+01 2.140746e-03 0.000000e+00)	(-2.582649e-01 2.286091e-04 1.864349e-21)
8.925         	(2.315977e+01 2.253613e-03 1.861625e-21)	(2.341377e+01 2.026394e-03 0.000000e+00)	(-2.540000e-01 2.272191e-04 1.861625e-21)
8.95          	(2.324308e+01 2.368195e-03 1.859135e-21)	(2.349282e+01 2.141683e-03 0.000000e+00)	(-2.497344e-01 2.265126e-04 1.859135e-21)
8.975         	(2.331959e+01 2.344054e-03 1.856488e-21)	(2.356508e+01 2.118153e-03 0.000000e+00)	(-2.454903e-01 2.259010e-04 1.856488e-21)
9             	(2.340330e+01 2.408617e-03 1.853706e-21)	(2.364456e+01 2.183006e-03 0.000000e+00)	(-2.412580e-01 2.256112e-04 1.853706e-21)
9.025         	(2.347784e+01 2.398117e-03 1.850774e-21)	(2.371489e+01 2.172530e-03 0.000000e+00)	(-2.370449e-01 2.255865e-04 1.850774e-21)
9.05          	(2.356961e+01 2.486798e-03 1.848100e-21)	(2.380244e+01 2.261308e-03 0.000000e+00)	(-2.328267e-01 2.254899e-04 1.848100e-21)
9.075         	(2.365256e+01 2.465404e-03 1.844710e-21)	(2.388117e+01 2.240126e-03 0.000000e+00)	(-2.286019e-01 2.252780e-04 1.844710e-21)
9.1           	(2.373472e+01 2.401846e-03 1.841517e-21)	(2.395911e+01 2.177099e-03 0.000000e+00)	(-2.243959e-01 2.247468e-04 1.841517e-21)
9.125         	(2.381801e+01 2.513176e-03 1.837585e-21)	(2.403822e+01 2.288581e-03 0.000000e+00)	(-2.202065e-01 2.245945e-04 1.837585e-21)
9.15          	(2.389843e+01 2.362886e-03 1.834115e-21)	(2.411446e+01 2.139047e-03 0.000000e+00)	(-2.160370e-01 2.238381e-04 1.834115e-21)
9.175         	(2.397763e+01 2.538690e-03 1.830672e-21)	(2.418951e+01 2.314924e-03 0.000000e+00)	(-2.118825e-01 2.237653e-04 1.830672e-21)
9.2           	(2.406095e+01 2.541444e-03 1.826754e-21)	(2.426868e+01 2.317764e-03 0.000000e+00)	(-2.077312e-01 2.236793e-04 1.826754e-21)
9.225         	(2.413288e+01 1.776703e-03 1.825604e-21)	(2.433652e+01 1.557990e-03 0.000000e+00)	(-2.036395e-01 2.187133e-04 1.825604e-21)
9.25          	(2.421122e+01 2.036541e-03 1.824092e-21)	(2.441079e+01 1.820492e-03 0.000000e+00)	(-1.995728e-01 2.160488e-04 1.824092e-21)
9.275         	(2.428848e+01 2.250690e-03 1.822419e-21)	(2.448399e+01 2.034914e-03 0.000000e+00)	(-1.955138e-01 2.157756e-04 1.822419e-21)
9.3           	(2.437444e+01 2.309544e-03 1.820668e-21)	(2.456589e+01 2.093863e-03 0.000000e+00)	(-1.914516e-01 2.156808e-04 1.820668e-21)
9.325         	(2.445829e+01 2.345512e-03 1.818251e-21)	(2.464567e+01 2.129611e-03 0.000000e+00)	(-1.873839e-01 2.159015e-04 1.818251e-21)
9.35          	(2.453704e+01 2.387615e-03 1.817500e-21)	(2.472038e+01 2.171847e-03 0.000000e+00)	(-1.833361e-01 2.157683e-04 1.817500e-21)
9.375         	(2.461881e+01 2.290212e-03 1.817273e-21)	(2.479812e+01 2.075601e-03 0.000000e+00)	(-1.793095e-01 2.146119e-04 1.817273e-21)
9.4           	(2.469736e+01 2.299994e-03 1.817480e-21)	(2.487266e+01 2.086404e-03 0.000000e+00)	(-1.753022e-01 2.135909e-04 1.817480e-21)
9.425         	(2.477426e+01 2.454729e-03 1.818245e-21)	(2.494557e+01 2.241811e-03 0.000000e+00)	(-1.713111e-01 2.129183e-04 1.818245e-21)
9.45          	(2.485338e+01 2.428317e-03 1.820254e-21)	(2.502071e+01 2.215412e-03 0.000000e+00)	(-1.673306e-01 2.129048e-04 1.820254e-21)
9.475         	(2.492615e+01 2.386526e-03 1.823212e-21)	(2.508953e+01 2.174021e-03 0.000000e+00)	(-1.633797e-01 2.125045e-04 1.823212e-21)
9.5           	(2.500079e+01 2.560231e-03 1.823568e-21)	(2.516024e+01 2.348254e-03 0.000000e+00)	(-1.594573e-01 2.119773e-04 1.823568e-21)
9.525         	(2.508079e+01 2.623954e-03 1.820563e-21)	(2.523634e+01 2.411307e-03 0.000000e+00)	(-1.555474e-01 2.126469e-04 1.820563e-21)
9.55          	(2.516092e+01 2.572775e-03 1.817554e-21)	(2.531256e+01 2.359701e-03 0.000000e+00)	(-1.516439e-01 2.130746e-04 1.817554e-21)
9.575         	(2.524014e+01 2.777747e-03 1.814247e-21)	(2.538790e+01 2.564158e-03 0.000000e+00)	(-1.477539e-01 2.135894e-04 1.814247e-21)
9.6           	(2.531731e+01 2.647158e-03 1.810747e-21)	(2.546121e+01 2.433890e-03 0.000000e+00)	(-1.438982e-01 2.132681e-04 1.810747e-21)
9.625         	(2.539398e+01 2.795755e-03 1.788576e-21)	(2.553406e+01 2.582210e-03 0.000000e+00)	(-1.400820e-01 2.135448e-04 1.788576e-21)
9.65          	(2.546719e+01 2.732082e-03 1.785022e-21)	(2.560349e+01 2.518660e-03 0.000000e+00)	(-1.363024e-01 2.134222e-04 1.785022e-21)
9.675         	(2.554413e+01 2.805186e-03 1.779195e-21)	(2.567667e+01 2.591391e-03 0.000000e+00)	(-1.325422e-01 2.137958e-04 1.779195e-21)
9.7           	(2.561252e+01 2.881269e-03 1.773023e-21)	(2.574134e+01 2.666883e-03 0.000000e+00)	(-1.288207e-01 2.143856e-04 1.773023e-21)
9.725         	(2.568494e+01 2.763767e-03 1.766046e-21)	(2.581007e+01 2.549702e-03 0.000000e+00)	(-1.251335e-01 2.140650e-04 1.766046e-21)
9.75          	(2.575813e+01 2.896577e-03 1.758343e-21)	(2.587960e+01 2.682327e-03 0.000000e+00)	(-1.214706e-01 2.142496e-04 1.758343e-21)
9.775         	(2.583482e+01 3.010804e-03 1.751524e-21)	(2.595264e+01 2.795677e-03 0.000000e+00)	(-1.178244e-01 2.151265e-04 1.751524e-21)
9.8           	(2.591221e+01 2.950352e-03 1.747172e-21)	(2.602640e+01 2.734625e-03 0.000000e+00)	(-1.141891e-01 2.157263e-04 1.747172e-21)
9.825         	(2.598314e+01 3.058565e-03 1.741928e-21)	(2.609373e+01 2.842049e-03 0.000000e+00)	(-1.105861e-01 2.165167e-04 1.741928e-21)
9.85          	(2.605555e+01 3.073579e-03 1.735954e-21)	(2.616257e+01 2.856461e-03 0.000000e+00)	(-1.070193e-01 2.171177e-04 1.735954e-21)
9.875         	(2.612577e+01 3.026211e-03 1.742469e-21)	(2.622926e+01 2.809112e-03 0.000000e+00)	(-1.034833e-01 2.170996e-04 1.742469e-21)
9.9           	(2.619635e+01 3.311326e-03 1.737230e-21)	(2.629632e+01 3.093270e-03 0.000000e+00)	(-9.997221e-02 2.180554e-04 1.737230e-21)
9.925         	(2.626143e+01 3.088087e-03 1.730691e-21)	(2.635793e+01 2.869333e-03 0.000000e+00)	(-9.649397e-02 2.187533e-04 1.730691e-21)
9.95          	(2.632749e+01 3.297786e-03 1.723893e-21)	(2.642054e+01 3.077590e-03 0.000000e+00)	(-9.305404e-02 2.201955e-04 1.723893e-21)
9.975         	(2.639586e+01 3.309461e-03 1.728346e-21)	(2.648550e+01 3.088528e-03 0.000000e+00)	(-8.964065e-02 2.209325e-04 1.728346e-21)
10            	(2.646799e+01 3.397863e-03 1.709425e-21)	(2.655424e+01 3.175530e-03 0.000000e+00)	(-8.624477e-02 2.223329e-04 1.709425e-21)
10.025        	(2.654101e+01 3.308524e-03 1.702086e-21)	(2.662387e+01 3.085376e-03 0.000000e+00)	(-8.286071e-02 2.231480e-04 1.702086e-21)
10.05         	(2.660650e+01 3.375194e-03 1.694678e-21)	(2.668602e+01 3.151442e-03 0.000000e+00)	(-7.951274e-02 2.237526e-04 1.694678e-21)
10.075        	(2.667379e+01 3.441432e-03 1.682046e-21)	(2.674999e+01 3.216796e-03 0.000000e+00)	(-7.620434e-02 2.246363e-04 1.682046e-21)
10.1          	(2.673705e+01 3.264459e-03 1.679652e-21)	(2.680998e+01 3.039981e-03 0.000000e+00)	(-7.293170e-02 2.244777e-04 1.679652e-21)
10.125        	(2.680279e+01 3.538900e-03 1.670957e-21)	(2.687247e+01 3.313213e-03 0.000000e+00)	(-6.968473e-02 2.256867e-04 1.670957e-21)
10.15         	(2.686070e+01 3.589686e-03 1.662838e-21)	(2.692717e+01 3.362129e-03 0.000000e+00)	(-6.647805e-02 2.275577e-04 1.662838e-21)
10.175        	(2.692132e+01 3.480098e-03 1.654045e-21)	(2.698463e+01 3.251536e-03 0.000000e+00)	(-6.331042e-02 2.285624e-04 1.654045e-21)
10.2          	(2.698462e+01 3.600829e-03 1.651517e-21)	(2.704479e+01 3.370708e-03 0.000000e+00)	(-6.017024e-02 2.301208e-04 1.651517e-21)
10.225        	(2.705070e+01 3.680970e-03 1.639217e-21)	(2.710775e+01 3.449228e-03 0.000000e+00)	(-5.705115e-02 2.317421e-04 1.639217e-21)
10.25         	(2.711514e+01 3.663812e-03 1.629190e-21)	(2.716909e+01 3.430657e-03 0.000000e+00)	(-5.395555e-02 2.331546e-04 1.629190e-21)
10.275        	(2.717687e+01 3.647942e-03 1.620299e-21)	(2.722777e+01 3.413129e-03 0.000000e+00)	(-5.089321e-02 2.348123e-04 1.620299e-21)
10.3          	(2.723599e+01 3.696356e-03 1.608083e-21)	(2.728386e+01 3.460289e-03 0.000000e+00)	(-4.787046e-02 2.360677e-04 1.608083e-21)
10.325        	(2.729163e+01 4.130915e-03 1.593447e-21)	(2.733651e+01 3.891630e-03 0.000000e+00)	(-4.488228e-02 2.392848e-04 1.593447e-21)
10.35         	(2.734992e+01 3.969968e-03 1.583669e-21)	(2.739185e+01 3.727837e-03 0.000000e+00)	(-4.192223e-02 2.421311e-04 1.583669e-21)
10.375        	(2.740329e+01 3.937885e-03 1.564741e-21)	(2.744230e+01 3.693686e-03 0.000000e+00)	(-3.900589e-02 2.441987e-04 1.564741e-21)
10.4          	(2.745425e+01 4.000181e-03 1.551483e-21)	(2.749039e+01 3.753799e-03 0.000000e+00)	(-3.613633e-02 2.463820e-04 1.551483e-21)
10.425        	(2.752006e+01 3.881954e-03 1.532007e-21)	(2.755334e+01 3.634079e-03 0.000000e+00)	(-3.328310e-02 2.478748e-04 1.532007e-21)
10.45         	(2.757591e+01 4.099036e-03 1.523128e-21)	(2.760636e+01 3.848657e-03 0.000000e+00)	(-3.045241e-02 2.503791e-04 1.523128e-21)
10.475        	(2.763261e+01 4.084137e-03 1.508218e-21)	(2.766028e+01 3.831266e-03 0.000000e+00)	(-2.766123e-02 2.528710e-04 1.508218e-21)
10.5          	(2.768471e+01 3.904046e-03 1.493006e-21)	(2.770963e+01 3.649868e-03 0.000000e+00)	(-2.491762e-02 2.541782e-04 1.493006e-21)
10.525        	(2.773781e+01 4.183203e-03 1.477495e-21)	(2.776002e+01 3.926942e-03 0.000000e+00)	(-2.221393e-02 2.562606e-04 1.477495e-21)
10.55         	(2.778953e+01 3.996989e-03 1.461497e-21)	(2.780907e+01 3.739100e-03 0.000000e+00)	(-1.954569e-02 2.578896e-04 1.461497e-21)
10.575        	(2.783697e+01 4.183823e-03 1.444846e-21)	(2.785388e+01 3.923588e-03 0.000000e+00)	(-1.691840e-02 2.602348e-04 1.444846e-21)
10.6          	(2.788419e+01 3.950613e-03 1.427602e-21)	(2.789853e+01 3.688839e-03 0.000000e+00)	(-1.433609e-02 2.617748e-04 1.427602e-21)
10.625        	(2.793692e+01 4.320699e-03 1.413176e-21)	(2.794871e+01 4.056058e-03 0.000000e+00)	(-1.178465e-02 2.646410e-04 1.413176e-21)
10.65         	(2.798895e+01 4.166272e-03 1.403193e-21)	(2.799821e+01 3.899279e-03 0.000000e+00)	(-9.259788e-03 2.669925e-04 1.403193e-21)
10.675        	(2.804067e+01 4.249373e-03 1.393132e-21)	(2.804744e+01 3.980213e-03 0.000000e+00)	(-6.763901e-03 2.691601e-04 1.393132e-21)
10.7          	(2.808774e+01 4.243957e-03 1.383124e-21)	(2.809205e+01 3.972533e-03 0.000000e+00)	(-4.311792e-03 2.714241e-04 1.383124e-21)
10.725        	(2.813435e+01 4.080700e-03 1.373220e-21)	(2.813625e+01 3.807895e-03 0.000000e+00)	(-1.906989e-03 2.728043e-04 1.373220e-21)
10.75         	(2.817795e+01 4.295767e-03 1.363073e-21)	(2.817749e+01 4.021462e-03 0.000000e+00)	(4.557357e-04 2.743043e-04 1.363073e-21)
10.775        	(2.822252e+01 4.220424e-03 1.354020e-21)	(2.821973e+01 3.943984e-03 0.000000e+00)	(2.783212e-03 2.764398e-04 1.354020e-21)
10.8          	(2.826233e+01 4.173593e-03 1.344947e-21)	(2.825727e+01 3.895441e-03 0.000000e+00)	(5.061333e-03 2.781519e-04 1.344947e-21)
10.825        	(2.830419e+01 4.389033e-03 1.335923e-21)	(2.829690e+01 4.108167e-03 0.000000e+00)	(7.295402e-03 2.808656e-04 1.335923e-21)
10.85         	(2.835235e+01 4.255288e-03 1.329622e-21)	(2.834284e+01 3.972514e-03 0.000000e+00)	(9.503141e-03 2.827734e-04 1.329622e-21)
10.875        	(2.839755e+01 4.374768e-03 1.320880e-21)	(2.838587e+01 4.089770e-03 0.000000e+00)	(1.168257e-02 2.849981e-04 1.320880e-21)
10.9          	(2.843816e+01 4.375929e-03 1.312309e-21)	(2.842434e+01 4.088520e-03 0.000000e+00)	(1.381537e-02 2.874091e-04 1.312309e-21)
10.925        	(2.847792e+01 4.360410e-03 1.304111e-21)	(2.846202e+01 4.070913e-03 0.000000e+00)	(1.589784e-02 2.894970e-04 1.304111e-21)
10.95         	(2.851497e+01 4.279084e-03 1.296427e-21)	(2.849703e+01 3.988045e-03 0.000000e+00)	(1.793764e-02 2.910395e-04 1.296427e-21)
10.975        	(2.855240e+01 4.485269e-03 1.287875e-21)	(2.853246e+01 4.191539e-03 0.000000e+00)	(1.993905e-02 2.937297e-04 1.287875e-21)
11            	(2.858513e+01 4.364352e-03 1.279419e-21)	(2.856323e+01 4.068142e-03 0.000000e+00)	(2.189726e-02 2.962093e-04 1.279419e-21)
11.025        	(2.861677e+01 4.521750e-03 1.272494e-21)	(2.859296e+01 4.222874e-03 0.000000e+00)	(2.381338e-02 2.988759e-04 1.272494e-21)
11.05         	(2.865946e+01 4.382042e-03 1.265935e-21)	(2.863375e+01 4.080890e-03 0.000000e+00)	(2.570923e-02 3.011517e-04 1.265935e-21)
11.075        	(2.869609e+01 4.459309e-03 1.385931e-21)	(2.866851e+01 4.155727e-03 0.000000e+00)	(2.758006e-02 3.035820e-04 1.385931e-21)
11.1          	(2.872962e+01 4.473698e-03 1.380701e-21)	(2.870021e+01 4.167761e-03 0.000000e+00)	(2.940840e-02 3.059373e-04 1.380701e-21)
11.125        	(2.876217e+01 4.626420e-03 1.375949e-21)	(2.873098e+01 4.317394e-03 0.000000e+00)	(3.118926e-02 3.090262e-04 1.375949e-21)
11.15         	(2.879175e+01 4.246268e-03 1.371253e-21)	(2.875882e+01 3.936065e-03 0.000000e+00)	(3.292932e-02 3.102024e-04 1.371253e-21)
11.175        	(2.882234e+01 4.642937e-03 1.368131e-21)	(2.878771e+01 4.330342e-03 0.000000e+00)	(3.463201e-02 3.125945e-04 1.368131e-21)
11.2          	(2.884770e+01 4.458318e-03 1.365062e-21)	(2.881140e+01 4.143182e-03 0.000000e+00)	(3.629043e-02 3.151363e-04 1.365062e-21)
11.225        	(2.887243e+01 4.592023e-03 1.362722e-21)	(2.883453e+01 4.274172e-03 0.000000e+00)	(3.790156e-02 3.178506e-04 1.362722e-21)
11.25         	(2.890705e+01 4.565868e-03 1.361465e-21)	(2.886756e+01 4.245504e-03 0.000000e+00)	(3.948534e-02 3.203641e-04 1.361465e-21)
11.275        	(2.893683e+01 4.603877e-03 1.361276e-21)	(2.889579e+01 4.281081e-03 0.000000e+00)	(4.104492e-02 3.227958e-04 1.361276e-21)
11.3          	(2.896270e+01 4.689312e-03 1.362569e-21)	(2.892014e+01 4.363770e-03 0.000000e+00)	(4.256292e-02 3.255426e-04 1.362569e-21)
11.325        	(2.898645e+01 4.604543e-03 1.365591e-21)	(2.894242e+01 4.276441e-03 0.000000e+00)	(4.403171e-02 3.281020e-04 1.365591e-21)
11.35         	(2.901031e+01 4.384436e-03 1.358090e-21)	(2.896485e+01 4.055519e-03 0.000000e+00)	(4.545890e-02 3.289172e-04 1.358090e-21)