# Force       
# CofR        : (0.000000e+00 0.000000e+00 0.000000e+00)
#
# Time        	(total_x total_y total_z)	(pressure_x pressure_y pressure_z)	(viscous_x viscous_y viscous_z)
29.025        	(1.456197e+00 -3.146449e-04 5.793426e-21)	(1.068430e+00 -2.938947e-04 6.206253e-21)	(3.877669e-01 -2.075021e-05 -4.128268e-22)
29.05         	(1.456149e+00 -3.189538e-04 5.793490e-21)	(1.068401e+00 -2.974733e-04 6.206457e-21)	(3.877475e-01 -2.148050e-05 -4.129676e-22)
29.075        	(1.456032e+00 -3.201912e-04 5.791839e-21)	(1.068304e+00 -2.979940e-04 6.204181e-21)	(3.877280e-01 -2.219722e-05 -4.123416e-22)
29.1          	(1.455958e+00 -3.199099e-04 5.791536e-21)	(1.068250e+00 -2.971006e-04 6.203824e-21)	(3.877085e-01 -2.280932e-05 -4.122872e-22)
29.125        	(1.455884e+00 -3.250426e-04 5.790725e-21)	(1.068195e+00 -3.016534e-04 6.202800e-21)	(3.876888e-01 -2.338926e-05 -4.120756e-22)
29.15         	(1.455808e+00 -3.329329e-04 5.790125e-21)	(1.068139e+00 -3.089342e-04 6.201977e-21)	(3.876692e-01 -2.399868e-05 -4.118516e-22)
29.175        	(1.455720e+00 -3.332048e-04 5.789254e-21)	(1.068071e+00 -3.085769e-04 6.200805e-21)	(3.876497e-01 -2.462792e-05 -4.115507e-22)
29.2          	(1.455634e+00 -3.396227e-04 5.788632e-21)	(1.068003e+00 -3.143475e-04 6.199920e-21)	(3.876303e-01 -2.527518e-05 -4.112873e-22)
29.225        	(1.455548e+00 -3.426477e-04 5.787943e-21)	(1.067937e+00 -3.167165e-04 6.198979e-21)	(3.876108e-01 -2.593118e-05 -4.110360e-22)
29.25         	(1.455460e+00 -3.462892e-04 5.787440e-21)	(1.067869e+00 -3.197058e-04 6.198275e-21)	(3.875914e-01 -2.658340e-05 -4.108352e-22)
29.275        	(1.455377e+00 -3.495159e-04 5.786613e-21)	(1.067805e+00 -3.222832e-04 6.197166e-21)	(3.875721e-01 -2.723276e-05 -4.105525e-22)
29.3          	(1.455290e+00 -3.529113e-04 5.785766e-21)	(1.067738e+00 -3.250344e-04 6.196015e-21)	(3.875527e-01 -2.787692e-05 -4.102484e-22)
29.325        	(1.455205e+00 -3.557377e-04 5.784976e-21)	(1.067671e+00 -3.272205e-04 6.194947e-21)	(3.875335e-01 -2.851724e-05 -4.099710e-22)
29.35         	(1.455121e+00 -3.601069e-04 5.784228e-21)	(1.067607e+00 -3.309447e-04 6.193934e-21)	(3.875142e-01 -2.916217e-05 -4.097059e-22)
29.375        	(1.455035e+00 -3.628445e-04 5.783688e-21)	(1.067540e+00 -3.330418e-04 6.193193e-21)	(3.874949e-01 -2.980272e-05 -4.095048e-22)
29.4          	(1.454951e+00 -3.662663e-04 5.782885e-21)	(1.067475e+00 -3.358263e-04 6.192111e-21)	(3.874757e-01 -3.043999e-05 -4.092259e-22)
29.425        	(1.454865e+00 -3.690951e-04 5.782044e-21)	(1.067409e+00 -3.380236e-04 6.190974e-21)	(3.874566e-01 -3.107156e-05 -4.089299e-22)
29.45         	(1.454781e+00 -3.717939e-04 5.781261e-21)	(1.067343e+00 -3.400966e-04 6.189919e-21)	(3.874374e-01 -3.169737e-05 -4.086585e-22)
29.475        	(1.454696e+00 -3.754619e-04 5.780546e-21)	(1.067278e+00 -3.431383e-04 6.188944e-21)	(3.874183e-01 -3.232359e-05 -4.083979e-22)
29.5          	(1.454609e+00 -3.788909e-04 5.780056e-21)	(1.067210e+00 -3.459427e-04 6.188254e-21)	(3.873992e-01 -3.294818e-05 -4.081985e-22)
29.525        	(1.454526e+00 -3.801667e-04 5.779199e-21)	(1.067145e+00 -3.466028e-04 6.187120e-21)	(3.873802e-01 -3.356397e-05 -4.079206e-22)
29.55         	(1.454442e+00 -3.845686e-04 5.778375e-21)	(1.067081e+00 -3.503896e-04 6.186000e-21)	(3.873611e-01 -3.417900e-05 -4.076245e-22)
29.575        	(1.454358e+00 -3.863193e-04 5.777557e-21)	(1.067016e+00 -3.515290e-04 6.184907e-21)	(3.873422e-01 -3.479033e-05 -4.073503e-22)
29.6          	(1.454275e+00 -3.894637e-04 5.776823e-21)	(1.066952e+00 -3.540674e-04 6.183915e-21)	(3.873232e-01 -3.539638e-05 -4.070920e-22)
29.625        	(1.454190e+00 -3.928455e-04 5.776294e-21)	(1.066886e+00 -3.568422e-04 6.183186e-21)	(3.873043e-01 -3.600335e-05 -4.068922e-22)
29.65         	(1.454107e+00 -3.942861e-04 5.775453e-21)	(1.066821e+00 -3.576836e-04 6.182062e-21)	(3.872854e-01 -3.660247e-05 -4.066094e-22)
29.675        	(1.454024e+00 -3.982483e-04 5.774648e-21)	(1.066757e+00 -3.610505e-04 6.180972e-21)	(3.872665e-01 -3.719776e-05 -4.063238e-22)
29.7          	(1.453940e+00 -3.997943e-04 5.773830e-21)	(1.066692e+00 -3.620042e-04 6.179879e-21)	(3.872477e-01 -3.779012e-05 -4.060490e-22)
29.725        	(1.453857e+00 -4.034092e-04 5.773120e-21)	(1.066628e+00 -3.650269e-04 6.178912e-21)	(3.872289e-01 -3.838225e-05 -4.057926e-22)
29.75         	(1.453773e+00 -4.063385e-04 5.772575e-21)	(1.066563e+00 -3.673646e-04 6.178164e-21)	(3.872101e-01 -3.897390e-05 -4.055892e-22)
29.775        	(1.453689e+00 -4.062823e-04 5.771674e-21)	(1.066497e+00 -3.667325e-04 6.176977e-21)	(3.871913e-01 -3.954983e-05 -4.053033e-22)
29.8          	(1.453608e+00 -4.113836e-04 5.770935e-21)	(1.066435e+00 -3.712601e-04 6.175961e-21)	(3.871726e-01 -4.012356e-05 -4.050268e-22)
29.825        	(1.453524e+00 -4.119746e-04 5.770081e-21)	(1.066370e+00 -3.712788e-04 6.174831e-21)	(3.871539e-01 -4.069580e-05 -4.047499e-22)
29.85         	(1.453442e+00 -4.157203e-04 5.769379e-21)	(1.066307e+00 -3.744540e-04 6.173877e-21)	(3.871353e-01 -4.126630e-05 -4.044977e-22)
29.875        	(1.453359e+00 -4.190057e-04 5.768870e-21)	(1.066242e+00 -3.771657e-04 6.173168e-21)	(3.871166e-01 -4.184000e-05 -4.042984e-22)
29.9          	(1.453276e+00 -4.171806e-04 5.767910e-21)	(1.066178e+00 -3.747887e-04 6.171923e-21)	(3.870980e-01 -4.239192e-05 -4.040125e-22)
29.925        	(1.453195e+00 -4.231347e-04 5.767193e-21)	(1.066116e+00 -3.801925e-04 6.170930e-21)	(3.870795e-01 -4.294224e-05 -4.037373e-22)
29.95         	(1.453112e+00 -4.230556e-04 5.766348e-21)	(1.066051e+00 -3.795644e-04 6.169814e-21)	(3.870609e-01 -4.349125e-05 -4.034666e-22)
29.975        	(1.453031e+00 -4.262658e-04 5.765612e-21)	(1.065988e+00 -3.822289e-04 6.168822e-21)	(3.870424e-01 -4.403686e-05 -4.032102e-22)
30            	(1.452948e+00 -4.292603e-04 5.765093e-21)	(1.065924e+00 -3.846778e-04 6.168104e-21)	(3.870240e-01 -4.458247e-05 -4.030115e-22)
30.025        	(1.452866e+00 -4.277840e-04 5.764150e-21)	(1.065860e+00 -3.826767e-04 6.166877e-21)	(3.870055e-01 -4.510729e-05 -4.027271e-22)
30.05         	(1.452785e+00 -4.324354e-04 5.763382e-21)	(1.065798e+00 -3.868048e-04 6.165830e-21)	(3.869871e-01 -4.563055e-05 -4.024473e-22)
30.075        	(1.452703e+00 -4.323491e-04 5.762537e-21)	(1.065735e+00 -3.861999e-04 6.164713e-21)	(3.869687e-01 -4.614924e-05 -4.021754e-22)
30.1          	(1.452622e+00 -4.362132e-04 5.761855e-21)	(1.065672e+00 -3.895434e-04 6.163784e-21)	(3.869503e-01 -4.666983e-05 -4.019284e-22)
30.125        	(1.452541e+00 -4.386845e-04 5.761276e-21)	(1.065609e+00 -3.914895e-04 6.162995e-21)	(3.869320e-01 -4.719502e-05 -4.017198e-22)
30.15         	(1.452459e+00 -4.371369e-04 5.760354e-21)	(1.065545e+00 -3.894379e-04 6.161792e-21)	(3.869137e-01 -4.769906e-05 -4.014382e-22)
30.175        	(1.452379e+00 -4.421475e-04 5.759615e-21)	(1.065483e+00 -3.939425e-04 6.160779e-21)	(3.868954e-01 -4.820496e-05 -4.011642e-22)
30.2          	(1.452297e+00 -4.415298e-04 5.758738e-21)	(1.065420e+00 -3.928231e-04 6.159628e-21)	(3.868772e-01 -4.870667e-05 -4.008898e-22)
30.225        	(1.452217e+00 -4.444516e-04 5.758015e-21)	(1.065359e+00 -3.952514e-04 6.158654e-21)	(3.868590e-01 -4.920019e-05 -4.006390e-22)
30.25         	(1.452136e+00 -4.474222e-04 5.757485e-21)	(1.065295e+00 -3.977227e-04 6.157923e-21)	(3.868408e-01 -4.969945e-05 -4.004383e-22)
30.275        	(1.452055e+00 -4.447580e-04 5.756518e-21)	(1.065232e+00 -3.945829e-04 6.156672e-21)	(3.868226e-01 -5.017509e-05 -4.001542e-22)
30.3          	(1.451976e+00 -4.497582e-04 5.755805e-21)	(1.065172e+00 -3.991074e-04 6.155695e-21)	(3.868045e-01 -5.065080e-05 -3.998904e-22)
30.325        	(1.451895e+00 -4.493452e-04 5.754952e-21)	(1.065109e+00 -3.982210e-04 6.154572e-21)	(3.867864e-01 -5.112425e-05 -3.996201e-22)
30.35         	(1.451816e+00 -4.519506e-04 5.754229e-21)	(1.065048e+00 -4.003553e-04 6.153602e-21)	(3.867683e-01 -5.159532e-05 -3.993723e-22)
30.375        	(1.451735e+00 -4.543194e-04 5.753658e-21)	(1.064985e+00 -4.022513e-04 6.152822e-21)	(3.867503e-01 -5.206805e-05 -3.991647e-22)
30.4          	(1.451655e+00 -4.518804e-04 5.752701e-21)	(1.064922e+00 -3.993639e-04 6.151583e-21)	(3.867322e-01 -5.251648e-05 -3.988818e-22)
30.425        	(1.451577e+00 -4.564755e-04 5.751973e-21)	(1.064862e+00 -4.035094e-04 6.150589e-21)	(3.867143e-01 -5.296606e-05 -3.986162e-22)
30.45         	(1.451496e+00 -4.554433e-04 5.751095e-21)	(1.064800e+00 -4.020324e-04 6.149438e-21)	(3.866963e-01 -5.341096e-05 -3.983437e-22)
30.475        	(1.451417e+00 -4.578157e-04 5.750369e-21)	(1.064739e+00 -4.039648e-04 6.148464e-21)	(3.866784e-01 -5.385093e-05 -3.980957e-22)
30.5          	(1.451337e+00 -4.598912e-04 5.749783e-21)	(1.064677e+00 -4.055993e-04 6.147672e-21)	(3.866605e-01 -5.429187e-05 -3.978885e-22)
30.525        	(1.451257e+00 -4.568957e-04 5.748817e-21)	(1.064615e+00 -4.021885e-04 6.146422e-21)	(3.866426e-01 -5.470725e-05 -3.976049e-22)
30.55         	(1.451179e+00 -4.615861e-04 5.748091e-21)	(1.064555e+00 -4.064615e-04 6.145431e-21)	(3.866247e-01 -5.512453e-05 -3.973396e-22)
30.575        	(1.451100e+00 -4.600290e-04 5.747219e-21)	(1.064493e+00 -4.044906e-04 6.144290e-21)	(3.866069e-01 -5.553844e-05 -3.970709e-22)
30.6          	(1.451022e+00 -4.625092e-04 5.746500e-21)	(1.064433e+00 -4.065612e-04 6.143328e-21)	(3.865891e-01 -5.594797e-05 -3.968280e-22)
30.625        	(1.450943e+00 -4.627174e-04 5.745732e-21)	(1.064371e+00 -4.063642e-04 6.142312e-21)	(3.865714e-01 -5.635317e-05 -3.965804e-22)
30.65         	(1.450863e+00 -4.648396e-04 5.745158e-21)	(1.064310e+00 -4.080856e-04 6.141533e-21)	(3.865536e-01 -5.675393e-05 -3.963747e-22)
30.675        	(1.450785e+00 -4.617069e-04 5.744173e-21)	(1.064249e+00 -4.045735e-04 6.140265e-21)	(3.865359e-01 -5.713347e-05 -3.960920e-22)
30.7          	(1.450708e+00 -4.659475e-04 5.743438e-21)	(1.064189e+00 -4.084338e-04 6.139261e-21)	(3.865182e-01 -5.751371e-05 -3.958232e-22)
30.725        	(1.450628e+00 -4.641056e-04 5.742531e-21)	(1.064128e+00 -4.062150e-04 6.138079e-21)	(3.865006e-01 -5.789063e-05 -3.955479e-22)
30.75         	(1.450551e+00 -4.663175e-04 5.741807e-21)	(1.064068e+00 -4.080543e-04 6.137112e-21)	(3.864830e-01 -5.826318e-05 -3.953048e-22)
30.775        	(1.450472e+00 -4.680384e-04 5.741233e-21)	(1.064007e+00 -4.093988e-04 6.136336e-21)	(3.864654e-01 -5.863960e-05 -3.951028e-22)
30.8          	(1.450394e+00 -4.639663e-04 5.740240e-21)	(1.063946e+00 -4.049779e-04 6.135059e-21)	(3.864478e-01 -5.898841e-05 -3.948185e-22)
30.825        	(1.450317e+00 -4.675007e-04 5.739498e-21)	(1.063887e+00 -4.081679e-04 6.134057e-21)	(3.864302e-01 -5.933279e-05 -3.945588e-22)
30.85         	(1.450239e+00 -4.664807e-04 5.738646e-21)	(1.063826e+00 -4.068041e-04 6.132938e-21)	(3.864127e-01 -5.967661e-05 -3.942921e-22)
30.875        	(1.450162e+00 -4.676581e-04 5.737889e-21)	(1.063767e+00 -4.076413e-04 6.131936e-21)	(3.863952e-01 -6.001677e-05 -3.940472e-22)
30.9          	(1.450085e+00 -4.676574e-04 5.737123e-21)	(1.063707e+00 -4.073062e-04 6.130926e-21)	(3.863778e-01 -6.035115e-05 -3.938031e-22)
30.925        	(1.450006e+00 -4.688815e-04 5.736524e-21)	(1.063646e+00 -4.082003e-04 6.130119e-21)	(3.863603e-01 -6.068120e-05 -3.935958e-22)
30.95         	(1.449929e+00 -4.658426e-04 5.735569e-21)	(1.063586e+00 -4.048521e-04 6.128888e-21)	(3.863429e-01 -6.099049e-05 -3.933190e-22)
30.975        	(1.449854e+00 -4.689534e-04 5.734793e-21)	(1.063528e+00 -4.076529e-04 6.127845e-21)	(3.863255e-01 -6.130048e-05 -3.930519e-22)
31            	(1.449775e+00 -4.667172e-04 5.733891e-21)	(1.063467e+00 -4.051132e-04 6.126669e-21)	(3.863082e-01 -6.160395e-05 -3.927789e-22)
31.025        	(1.449700e+00 -4.680427e-04 5.733148e-21)	(1.063409e+00 -4.061408e-04 6.125684e-21)	(3.862909e-01 -6.190193e-05 -3.925363e-22)
31.05         	(1.449622e+00 -4.690165e-04 5.732550e-21)	(1.063349e+00 -4.068158e-04 6.124886e-21)	(3.862736e-01 -6.220064e-05 -3.923358e-22)
31.075        	(1.449545e+00 -4.647588e-04 5.731572e-21)	(1.063288e+00 -4.022858e-04 6.123626e-21)	(3.862563e-01 -6.247292e-05 -3.920538e-22)
31.1          	(1.449470e+00 -4.684396e-04 5.730848e-21)	(1.063231e+00 -4.056913e-04 6.122650e-21)	(3.862390e-01 -6.274833e-05 -3.918016e-22)
31.125        	(1.449393e+00 -4.658747e-04 5.729939e-21)	(1.063171e+00 -4.028546e-04 6.121469e-21)	(3.862218e-01 -6.302007e-05 -3.915307e-22)
31.15         	(1.449317e+00 -4.667200e-04 5.729195e-21)	(1.063113e+00 -4.034362e-04 6.120483e-21)	(3.862046e-01 -6.328383e-05 -3.912883e-22)
31.175        	(1.449241e+00 -4.657460e-04 5.728389e-21)	(1.063053e+00 -4.022063e-04 6.119432e-21)	(3.861875e-01 -6.353962e-05 -3.910431e-22)
31.2          	(1.449165e+00 -4.663439e-04 5.727683e-21)	(1.062994e+00 -4.025505e-04 6.118490e-21)	(3.861703e-01 -6.379342e-05 -3.908072e-22)
31.225        	(1.449089e+00 -4.642297e-04 5.726830e-21)	(1.062935e+00 -4.001965e-04 6.117385e-21)	(3.861532e-01 -6.403321e-05 -3.905550e-22)
31.25         	(1.449013e+00 -4.646774e-04 5.726082e-21)	(1.062877e+00 -4.004108e-04 6.116393e-21)	(3.861361e-01 -6.426656e-05 -3.903104e-22)
31.275        	(1.448937e+00 -4.636491e-04 5.725246e-21)	(1.062818e+00 -3.991543e-04 6.115302e-21)	(3.861190e-01 -6.449484e-05 -3.900558e-22)
31.3          	(1.448862e+00 -4.632239e-04 5.724448e-21)	(1.062760e+00 -3.985075e-04 6.114252e-21)	(3.861020e-01 -6.471639e-05 -3.898046e-22)
31.325        	(1.448787e+00 -4.619685e-04 5.723612e-21)	(1.062702e+00 -3.970400e-04 6.113162e-21)	(3.860850e-01 -6.492847e-05 -3.895502e-22)
31.35         	(1.448711e+00 -4.614784e-04 5.722825e-21)	(1.062643e+00 -3.963464e-04 6.112128e-21)	(3.860680e-01 -6.513206e-05 -3.893028e-22)
31.375        	(1.448636e+00 -4.605083e-04 5.722018e-21)	(1.062585e+00 -3.951796e-04 6.111073e-21)	(3.860510e-01 -6.532866e-05 -3.890550e-22)
31.4          	(1.448561e+00 -4.595553e-04 5.721220e-21)	(1.062527e+00 -3.940383e-04 6.110029e-21)	(3.860341e-01 -6.551707e-05 -3.888089e-22)
31.425        	(1.448486e+00 -4.584131e-04 5.720414e-21)	(1.062469e+00 -3.927158e-04 6.108975e-21)	(3.860172e-01 -6.569733e-05 -3.885602e-22)
31.45         	(1.448411e+00 -4.575559e-04 5.719616e-21)	(1.062411e+00 -3.916854e-04 6.107930e-21)	(3.860003e-01 -6.587047e-05 -3.883140e-22)
31.475        	(1.448336e+00 -4.566112e-04 5.718813e-21)	(1.062353e+00 -3.905740e-04 6.106877e-21)	(3.859835e-01 -6.603723e-05 -3.880649e-22)
31.5          	(1.448262e+00 -4.553206e-04 5.717997e-21)	(1.062295e+00 -3.891221e-04 6.105813e-21)	(3.859666e-01 -6.619854e-05 -3.878156e-22)
31.525        	(1.448187e+00 -4.543824e-04 5.717194e-21)	(1.062238e+00 -3.880302e-04 6.104762e-21)	(3.859498e-01 -6.635228e-05 -3.875682e-22)
31.55         	(1.448113e+00 -4.530032e-04 5.716382e-21)	(1.062180e+00 -3.865048e-04 6.103702e-21)	(3.859330e-01 -6.649835e-05 -3.873200e-22)
31.575        	(1.448038e+00 -4.516743e-04 5.715573e-21)	(1.062122e+00 -3.850392e-04 6.102646e-21)	(3.859163e-01 -6.663512e-05 -3.870725e-22)
31.6          	(1.447964e+00 -4.501012e-04 5.714751e-21)	(1.062065e+00 -3.833374e-04 6.101576e-21)	(3.858996e-01 -6.676376e-05 -3.868247e-22)
31.625        	(1.447890e+00 -4.486718e-04 5.713943e-21)	(1.062007e+00 -3.817880e-04 6.100520e-21)	(3.858829e-01 -6.688373e-05 -3.865767e-22)
31.65         	(1.447816e+00 -4.479626e-04 5.713164e-21)	(1.061950e+00 -3.809640e-04 6.099499e-21)	(3.858662e-01 -6.699859e-05 -3.863344e-22)
31.675        	(1.447743e+00 -4.463644e-04 5.712348e-21)	(1.061893e+00 -3.792549e-04 6.098436e-21)	(3.858495e-01 -6.710951e-05 -3.860880e-22)
31.7          	(1.447669e+00 -4.445104e-04 5.711520e-21)	(1.061836e+00 -3.772995e-04 6.097360e-21)	(3.858329e-01 -6.721097e-05 -3.858396e-22)
31.725        	(1.447596e+00 -4.431769e-04 5.710720e-21)	(1.061779e+00 -3.758730e-04 6.096316e-21)	(3.858163e-01 -6.730390e-05 -3.855959e-22)
31.75         	(1.447522e+00 -4.413359e-04 5.709898e-21)	(1.061722e+00 -3.739479e-04 6.095246e-21)	(3.857997e-01 -6.738799e-05 -3.853484e-22)
31.775        	(1.447449e+00 -4.397771e-04 5.709089e-21)	(1.061665e+00 -3.723131e-04 6.094192e-21)	(3.857832e-01 -6.746394e-05 -3.851030e-22)
31.8          	(1.447375e+00 -4.381048e-04 5.708275e-21)	(1.061609e+00 -3.705704e-04 6.093131e-21)	(3.857666e-01 -6.753435e-05 -3.848563e-22)
31.825        	(1.447302e+00 -4.363471e-04 5.707463e-21)	(1.061552e+00 -3.687489e-04 6.092075e-21)	(3.857501e-01 -6.759817e-05 -3.846117e-22)
31.85         	(1.447229e+00 -4.342034e-04 5.706633e-21)	(1.061495e+00 -3.665521e-04 6.090997e-21)	(3.857336e-01 -6.765137e-05 -3.843644e-22)
31.875        	(1.447156e+00 -4.319917e-04 5.705804e-21)	(1.061439e+00 -3.642986e-04 6.089922e-21)	(3.857172e-01 -6.769311e-05 -3.841182e-22)
31.9          	(1.447083e+00 -4.302020e-04 5.704992e-21)	(1.061383e+00 -3.624752e-04 6.088866e-21)	(3.857008e-01 -6.772677e-05 -3.838737e-22)
31.925        	(1.447011e+00 -4.280846e-04 5.704168e-21)	(1.061326e+00 -3.603311e-04 6.087795e-21)	(3.856844e-01 -6.775357e-05 -3.836278e-22)
31.95         	(1.446938e+00 -4.260482e-04 5.703350e-21)	(1.061270e+00 -3.582747e-04 6.086733e-21)	(3.856680e-01 -6.777347e-05 -3.833827e-22)
31.975        	(1.446865e+00 -4.238597e-04 5.702528e-21)	(1.061214e+00 -3.560742e-04 6.085666e-21)	(3.856516e-01 -6.778551e-05 -3.831374e-22)
32            	(1.446793e+00 -4.217307e-04 5.701704e-21)	(1.061158e+00 -3.539408e-04 6.084596e-21)	(3.856353e-01 -6.778992e-05 -3.828926e-22)
32.025        	(1.446721e+00 -4.193072e-04 5.700878e-21)	(1.061102e+00 -3.515215e-04 6.083525e-21)	(3.856190e-01 -6.778572e-05 -3.826469e-22)
32.05         	(1.446649e+00 -4.172477e-04 5.700068e-21)	(1.061046e+00 -3.494736e-04 6.082473e-21)	(3.856027e-01 -6.777407e-05 -3.824045e-22)
32.075        	(1.446576e+00 -4.145976e-04 5.699235e-21)	(1.060990e+00 -3.468445e-04 6.081395e-21)	(3.855864e-01 -6.775311e-05 -3.821597e-22)
32.1          	(1.446504e+00 -4.129309e-04 5.698448e-21)	(1.060934e+00 -3.452016e-04 6.080367e-21)	(3.855702e-01 -6.772930e-05 -3.819192e-22)
32.125        	(1.446433e+00 -4.102410e-04 5.697613e-21)	(1.060879e+00 -3.425418e-04 6.079288e-21)	(3.855540e-01 -6.769920e-05 -3.816751e-22)
32.15         	(1.446361e+00 -4.080492e-04 5.696800e-21)	(1.060823e+00 -3.403881e-04 6.078233e-21)	(3.855378e-01 -6.766115e-05 -3.814327e-22)
32.175        	(1.446289e+00 -4.052952e-04 5.695964e-21)	(1.060767e+00 -3.376810e-04 6.077151e-21)	(3.855217e-01 -6.761417e-05 -3.811869e-22)
32.2          	(1.446218e+00 -4.028616e-04 5.695146e-21)	(1.060712e+00 -3.353032e-04 6.076091e-21)	(3.855055e-01 -6.755843e-05 -3.809443e-22)
32.225        	(1.446146e+00 -4.001630e-04 5.694309e-21)	(1.060657e+00 -3.326678e-04 6.075008e-21)	(3.854894e-01 -6.749524e-05 -3.806993e-22)
32.25         	(1.446075e+00 -3.974750e-04 5.693486e-21)	(1.060602e+00 -3.300521e-04 6.073942e-21)	(3.854733e-01 -6.742291e-05 -3.804567e-22)
32.275        	(1.446004e+00 -3.946701e-04 5.692656e-21)	(1.060546e+00 -3.273278e-04 6.072869e-21)	(3.854572e-01 -6.734231e-05 -3.802129e-22)
32.3          	(1.445933e+00 -3.916761e-04 5.691818e-21)	(1.060491e+00 -3.244243e-04 6.071787e-21)	(3.854412e-01 -6.725181e-05 -3.799691e-22)
32.325        	(1.445861e+00 -3.889426e-04 5.691001e-21)	(1.060436e+00 -3.217882e-04 6.070728e-21)	(3.854252e-01 -6.715436e-05 -3.797271e-22)
32.35         	(1.445790e+00 -3.862486e-04 5.690181e-21)	(1.060381e+00 -3.191987e-04 6.069667e-21)	(3.854092e-01 -6.704993e-05 -3.794862e-22)
32.375        	(1.445720e+00 -3.833122e-04 5.689349e-21)	(1.060327e+00 -3.163738e-04 6.068593e-21)	(3.853932e-01 -6.693837e-05 -3.792439e-22)
32.4          	(1.445649e+00 -3.799985e-04 5.688510e-21)	(1.060271e+00 -3.131811e-04 6.067510e-21)	(3.853773e-01 -6.681737e-05 -3.790002e-22)
32.425        	(1.445578e+00 -3.777789e-04 5.687715e-21)	(1.060217e+00 -3.110882e-04 6.066476e-21)	(3.853614e-01 -6.669071e-05 -3.787615e-22)
32.45         	(1.445508e+00 -3.743655e-04 5.686866e-21)	(1.060163e+00 -3.078076e-04 6.065384e-21)	(3.853455e-01 -6.655794e-05 -3.785183e-22)
32.475        	(1.445438e+00 -3.716993e-04 5.686055e-21)	(1.060108e+00 -3.052809e-04 6.064334e-21)	(3.853296e-01 -6.641839e-05 -3.782787e-22)
32.5          	(1.445367e+00 -3.680404e-04 5.685206e-21)	(1.060053e+00 -3.017720e-04 6.063241e-21)	(3.853137e-01 -6.626835e-05 -3.780348e-22)
32.525        	(1.445297e+00 -3.650328e-04 5.684383e-21)	(1.059999e+00 -2.989238e-04 6.062179e-21)	(3.852979e-01 -6.610895e-05 -3.777960e-22)
32.55         	(1.445227e+00 -3.616523e-04 5.683546e-21)	(1.059945e+00 -2.957113e-04 6.061101e-21)	(3.852821e-01 -6.594102e-05 -3.775544e-22)
32.575        	(1.445157e+00 -3.584080e-04 5.682717e-21)	(1.059891e+00 -2.926429e-04 6.060031e-21)	(3.852663e-01 -6.576515e-05 -3.773139e-22)
32.6          	(1.445087e+00 -3.551673e-04 5.681888e-21)	(1.059837e+00 -2.895845e-04 6.058961e-21)	(3.852506e-01 -6.558272e-05 -3.770725e-22)
32.625        	(1.445018e+00 -3.510598e-04 5.681027e-21)	(1.059783e+00 -2.856708e-04 6.057857e-21)	(3.852348e-01 -6.538894e-05 -3.768298e-22)
32.65         	(1.444947e+00 -3.485670e-04 5.680237e-21)	(1.059728e+00 -2.833777e-04 6.056830e-21)	(3.852191e-01 -6.518933e-05 -3.765924e-22)
32.675        	(1.444878e+00 -3.446668e-04 5.679383e-21)	(1.059675e+00 -2.796833e-04 6.055735e-21)	(3.852034e-01 -6.498342e-05 -3.763516e-22)
32.7          	(1.444809e+00 -3.413685e-04 5.678558e-21)	(1.059621e+00 -2.765987e-04 6.054670e-21)	(3.851877e-01 -6.476986e-05 -3.761119e-22)
32.725        	(1.444740e+00 -3.377605e-04 5.677726e-21)	(1.059567e+00 -2.732117e-04 6.053598e-21)	(3.851721e-01 -6.454878e-05 -3.758724e-22)
32.75         	(1.444670e+00 -3.341843e-04 5.676897e-21)	(1.059514e+00 -2.698646e-04 6.052530e-21)	(3.851565e-01 -6.431976e-05 -3.756336e-22)
32.775        	(1.444601e+00 -3.305246e-04 5.676062e-21)	(1.059460e+00 -2.664419e-04 6.051455e-21)	(3.851409e-01 -6.408262e-05 -3.753937e-22)
32.8          	(1.444532e+00 -3.268642e-04 5.675226e-21)	(1.059407e+00 -2.630272e-04 6.050380e-21)	(3.851253e-01 -6.383706e-05 -3.751543e-22)
32.825        	(1.444463e+00 -3.230766e-04 5.674394e-21)	(1.059353e+00 -2.594925e-04 6.049309e-21)	(3.851098e-01 -6.358410e-05 -3.749154e-22)
32.85         	(1.444394e+00 -3.193422e-04 5.673562e-21)	(1.059300e+00 -2.560188e-04 6.048238e-21)	(3.850942e-01 -6.332333e-05 -3.746760e-22)
32.875        	(1.444325e+00 -3.155481e-04 5.672727e-21)	(1.059247e+00 -2.524926e-04 6.047164e-21)	(3.850787e-01 -6.305545e-05 -3.744374e-22)
32.9          	(1.444257e+00 -3.116882e-04 5.671892e-21)	(1.059194e+00 -2.489080e-04 6.046091e-21)	(3.850632e-01 -6.278016e-05 -3.741983e-22)
32.925        	(1.444188e+00 -3.077501e-04 5.671059e-21)	(1.059140e+00 -2.452525e-04 6.045018e-21)	(3.850478e-01 -6.249762e-05 -3.739593e-22)
32.95         	(1.444120e+00 -3.040285e-04 5.670230e-21)	(1.059087e+00 -2.418198e-04 6.043952e-21)	(3.850323e-01 -6.220875e-05 -3.737218e-22)
32.975        	(1.444051e+00 -2.998963e-04 5.669398e-21)	(1.059034e+00 -2.379857e-04 6.042883e-21)	(3.850169e-01 -6.191056e-05 -3.734851e-22)
33            	(1.443983e+00 -2.953913e-04 5.668548e-21)	(1.058981e+00 -2.337897e-04 6.041794e-21)	(3.850015e-01 -6.160155e-05 -3.732462e-22)
33.025        	(1.443915e+00 -2.917751e-04 5.667734e-21)	(1.058928e+00 -2.304894e-04 6.040744e-21)	(3.849861e-01 -6.128568e-05 -3.730106e-22)
33.05         	(1.443847e+00 -2.873380e-04 5.666877e-21)	(1.058876e+00 -2.263761e-04 6.039648e-21)	(3.849708e-01 -6.096197e-05 -3.727711e-22)
33.075        	(1.443779e+00 -2.837922e-04 5.666068e-21)	(1.058823e+00 -2.231591e-04 6.038603e-21)	(3.849555e-01 -6.063306e-05 -3.725351e-22)
33.1          	(1.443711e+00 -2.793721e-04 5.665214e-21)	(1.058771e+00 -2.190738e-04 6.037510e-21)	(3.849402e-01 -6.029825e-05 -3.722960e-22)
33.125        	(1.443643e+00 -2.753050e-04 5.664389e-21)	(1.058718e+00 -2.153490e-04 6.036448e-21)	(3.849249e-01 -5.995596e-05 -3.720591e-22)
33.15         	(1.443575e+00 -2.708074e-04 5.663541e-21)	(1.058666e+00 -2.112018e-04 6.035362e-21)	(3.849096e-01 -5.960562e-05 -3.718205e-22)
33.175        	(1.443508e+00 -2.666795e-04 5.662719e-21)	(1.058614e+00 -2.074333e-04 6.034306e-21)	(3.848944e-01 -5.924626e-05 -3.715874e-22)
33.2          	(1.443440e+00 -2.618477e-04 5.661867e-21)	(1.058561e+00 -2.029708e-04 6.033215e-21)	(3.848792e-01 -5.887691e-05 -3.713487e-22)
33.225        	(1.443373e+00 -2.578744e-04 5.661053e-21)	(1.058509e+00 -1.993733e-04 6.032169e-21)	(3.848640e-01 -5.850112e-05 -3.711157e-22)
33.25         	(1.443306e+00 -2.538743e-04 5.660236e-21)	(1.058457e+00 -1.957517e-04 6.031117e-21)	(3.848488e-01 -5.812254e-05 -3.708811e-22)
33.275        	(1.443239e+00 -2.493600e-04 5.659392e-21)	(1.058405e+00 -1.916218e-04 6.030036e-21)	(3.848336e-01 -5.773821e-05 -3.706448e-22)
33.3          	(1.443172e+00 -2.450222e-04 5.658561e-21)	(1.058353e+00 -1.876754e-04 6.028970e-21)	(3.848185e-01 -5.734679e-05 -3.704087e-22)
33.325        	(1.443105e+00 -2.405528e-04 5.657730e-21)	(1.058301e+00 -1.836048e-04 6.027904e-21)	(3.848034e-01 -5.694792e-05 -3.701740e-22)
33.35         	(1.443038e+00 -2.359534e-04 5.656897e-21)	(1.058249e+00 -1.794126e-04 6.026836e-21)	(3.847883e-01 -5.654076e-05 -3.699391e-22)
33.375        	(1.442971e+00 -2.314508e-04 5.656063e-21)	(1.058198e+00 -1.753256e-04 6.025768e-21)	(3.847733e-01 -5.612528e-05 -3.697049e-22)
33.4          	(1.442904e+00 -2.267380e-04 5.655230e-21)	(1.058146e+00 -1.710362e-04 6.024700e-21)	(3.847582e-01 -5.570182e-05 -3.694702e-22)
33.425        	(1.442838e+00 -2.222392e-04 5.654398e-21)	(1.058095e+00 -1.669674e-04 6.023634e-21)	(3.847432e-01 -5.527177e-05 -3.692361e-22)
33.45         	(1.442771e+00 -2.174291e-04 5.653559e-21)	(1.058043e+00 -1.625949e-04 6.022560e-21)	(3.847282e-01 -5.483428e-05 -3.690007e-22)
33.475        	(1.442705e+00 -2.129021e-04 5.652734e-21)	(1.057992e+00 -1.585117e-04 6.021501e-21)	(3.847132e-01 -5.439042e-05 -3.687674e-22)
33.5          	(1.442638e+00 -2.080604e-04 5.651897e-21)	(1.057940e+00 -1.541211e-04 6.020429e-21)	(3.846983e-01 -5.393930e-05 -3.685324e-22)
33.525        	(1.442572e+00 -2.033274e-04 5.651063e-21)	(1.057889e+00 -1.498469e-04 6.019362e-21)	(3.846833e-01 -5.348050e-05 -3.682984e-22)
33.55         	(1.442506e+00 -1.985727e-04 5.650233e-21)	(1.057838e+00 -1.455569e-04 6.018297e-21)	(3.846684e-01 -5.301574e-05 -3.680644e-22)
33.575        	(1.442440e+00 -1.938013e-04 5.649406e-21)	(1.057786e+00 -1.412552e-04 6.017236e-21)	(3.846535e-01 -5.254607e-05 -3.678302e-22)
33.6          	(1.442374e+00 -1.889064e-04 5.648572e-21)	(1.057735e+00 -1.368379e-04 6.016171e-21)	(3.846387e-01 -5.206852e-05 -3.675987e-22)
33.625        	(1.442308e+00 -1.842202e-04 5.647760e-21)	(1.057684e+00 -1.326350e-04 6.015127e-21)	(3.846238e-01 -5.158517e-05 -3.673676e-22)
33.65         	(1.442242e+00 -1.788841e-04 5.646914e-21)	(1.057633e+00 -1.277913e-04 6.014049e-21)	(3.846090e-01 -5.109282e-05 -3.671344e-22)
33.675        	(1.442177e+00 -1.742863e-04 5.646098e-21)	(1.057583e+00 -1.236932e-04 6.013002e-21)	(3.845942e-01 -5.059314e-05 -3.669041e-22)
33.7          	(1.442111e+00 -1.692199e-04 5.645262e-21)	(1.057532e+00 -1.191326e-04 6.011932e-21)	(3.845794e-01 -5.008732e-05 -3.666707e-22)
33.725        	(1.442046e+00 -1.643093e-04 5.644425e-21)	(1.057481e+00 -1.147340e-04 6.010862e-21)	(3.845646e-01 -4.957527e-05 -3.664370e-22)
33.75         	(1.441980e+00 -1.591054e-04 5.643591e-21)	(1.057431e+00 -1.100501e-04 6.009794e-21)	(3.845499e-01 -4.905533e-05 -3.662035e-22)
33.775        	(1.441915e+00 -1.541116e-04 5.642751e-21)	(1.057380e+00 -1.055831e-04 6.008721e-21)	(3.845351e-01 -4.852848e-05 -3.659697e-22)
33.8          	(1.441849e+00 -1.492231e-04 5.641952e-21)	(1.057329e+00 -1.012258e-04 6.007693e-21)	(3.845204e-01 -4.799728e-05 -3.657410e-22)
33.825        	(1.441785e+00 -1.444481e-04 5.641132e-21)	(1.057279e+00 -9.698447e-05 6.006644e-21)	(3.845058e-01 -4.746360e-05 -3.655114e-22)
33.85         	(1.441720e+00 -1.393728e-04 5.640309e-21)	(1.057229e+00 -9.244815e-05 6.005590e-21)	(3.844911e-01 -4.692460e-05 -3.652817e-22)
33.875        	(1.441655e+00 -1.338543e-04 5.639476e-21)	(1.057178e+00 -8.747841e-05 6.004527e-21)	(3.844765e-01 -4.637589e-05 -3.650508e-22)
33.9          	(1.441590e+00 -1.289559e-04 5.638656e-21)	(1.057128e+00 -8.313646e-05 6.003477e-21)	(3.844619e-01 -4.581941e-05 -3.648211e-22)
33.925        	(1.441525e+00 -1.236524e-04 5.637825e-21)	(1.057078e+00 -7.839510e-05 6.002415e-21)	(3.844473e-01 -4.525732e-05 -3.645904e-22)
33.95         	(1.441461e+00 -1.183958e-04 5.636996e-21)	(1.057028e+00 -7.370790e-05 6.001355e-21)	(3.844327e-01 -4.468791e-05 -3.643588e-22)
33.975        	(1.441396e+00 -1.131638e-04 5.636167e-21)	(1.056978e+00 -6.905125e-05 6.000295e-21)	(3.844181e-01 -4.411253e-05 -3.641279e-22)
34            	(1.441331e+00 -1.076793e-04 5.635340e-21)	(1.056928e+00 -6.414902e-05 5.999237e-21)	(3.844036e-01 -4.353029e-05 -3.638972e-22)
34.025        	(1.441267e+00 -1.029601e-04 5.634542e-21)	(1.056878e+00 -6.001581e-05 5.998212e-21)	(3.843891e-01 -4.294424e-05 -3.636703e-22)
34.05         	(1.441203e+00 -9.733682e-05 5.633714e-21)	(1.056828e+00 -5.498375e-05 5.997156e-21)	(3.843746e-01 -4.235308e-05 -3.634422e-22)
34.075        	(1.441138e+00 -9.196626e-05 5.632886e-21)	(1.056778e+00 -5.021128e-05 5.996098e-21)	(3.843601e-01 -4.175498e-05 -3.632121e-22)
34.1          	(1.441074e+00 -8.727764e-05 5.632099e-21)	(1.056729e+00 -4.612463e-05 5.995086e-21)	(3.843456e-01 -4.115301e-05 -3.629866e-22)
34.125        	(1.441011e+00 -8.158376e-05 5.631255e-21)	(1.056679e+00 -4.103803e-05 5.994011e-21)	(3.843312e-01 -4.054574e-05 -3.627560e-22)
34.15         	(1.440947e+00 -7.651882e-05 5.630448e-21)	(1.056630e+00 -3.658620e-05 5.992977e-21)	(3.843168e-01 -3.993262e-05 -3.625288e-22)
34.175        	(1.440883e+00 -7.087250e-05 5.629623e-21)	(1.056580e+00 -3.155862e-05 5.991923e-21)	(3.843024e-01 -3.931388e-05 -3.622995e-22)
34.2          	(1.440819e+00 -6.566853e-05 5.628818e-21)	(1.056531e+00 -2.697963e-05 5.990892e-21)	(3.842880e-01 -3.868890e-05 -3.620739e-22)
34.225        	(1.440755e+00 -6.025424e-05 5.627997e-21)	(1.056482e+00 -2.219587e-05 5.989843e-21)	(3.842737e-01 -3.805837e-05 -3.618459e-22)