# Force       
# CofR        : (0.000000e+00 0.000000e+00 0.000000e+00)
#
# Time        	(total_x total_y total_z)	(pressure_x pressure_y pressure_z)	(viscous_x viscous_y viscous_z)
12.025        	(2.930060e+01 4.993226e-03 1.036626e-21)	(2.923097e+01 4.597890e-03 0.000000e+00)	(6.962670e-02 3.953362e-04 1.036626e-21)
12.05         	(2.929958e+01 5.065025e-03 1.033284e-21)	(2.922954e+01 4.667247e-03 0.000000e+00)	(7.004931e-02 3.977776e-04 1.033284e-21)
12.075        	(2.930109e+01 4.986708e-03 1.030087e-21)	(2.923065e+01 4.587478e-03 0.000000e+00)	(7.044229e-02 3.992299e-04 1.030087e-21)
12.1          	(2.929722e+01 4.945747e-03 1.027167e-21)	(2.922642e+01 4.545080e-03 0.000000e+00)	(7.080438e-02 4.006671e-04 1.027167e-21)
12.125        	(2.929441e+01 4.852919e-03 1.024072e-21)	(2.922327e+01 4.450206e-03 0.000000e+00)	(7.113498e-02 4.027129e-04 1.024072e-21)
12.15         	(2.928777e+01 5.062538e-03 1.020978e-21)	(2.921634e+01 4.656653e-03 0.000000e+00)	(7.143176e-02 4.058850e-04 1.020978e-21)
12.175        	(2.928277e+01 4.716318e-03 1.017926e-21)	(2.921107e+01 4.308860e-03 0.000000e+00)	(7.170115e-02 4.074578e-04 1.017926e-21)
12.2          	(2.927076e+01 4.987684e-03 1.014986e-21)	(2.919882e+01 4.578441e-03 0.000000e+00)	(7.193950e-02 4.092436e-04 1.014986e-21)
12.225        	(2.926327e+01 4.790905e-03 1.011981e-21)	(2.919112e+01 4.379325e-03 0.000000e+00)	(7.215144e-02 4.115801e-04 1.011981e-21)
12.25         	(2.925472e+01 5.056049e-03 1.008950e-21)	(2.918238e+01 4.641260e-03 0.000000e+00)	(7.233975e-02 4.147883e-04 1.008950e-21)
12.275        	(2.924763e+01 4.840919e-03 1.005914e-21)	(2.917512e+01 4.423796e-03 0.000000e+00)	(7.250633e-02 4.171231e-04 1.005914e-21)
12.3          	(2.923720e+01 5.085975e-03 1.002794e-21)	(2.916454e+01 4.666685e-03 0.000000e+00)	(7.265658e-02 4.192894e-04 1.002794e-21)
12.325        	(2.922753e+01 4.966072e-03 9.996524e-22)	(2.915475e+01 4.544662e-03 0.000000e+00)	(7.278560e-02 4.214103e-04 9.996524e-22)
12.35         	(2.921626e+01 5.100746e-03 9.966281e-22)	(2.914338e+01 4.676675e-03 0.000000e+00)	(7.288210e-02 4.240705e-04 9.966281e-22)
12.375        	(2.920305e+01 4.922246e-03 9.936340e-22)	(2.913010e+01 4.496255e-03 0.000000e+00)	(7.294597e-02 4.259910e-04 9.936340e-22)
12.4          	(2.919144e+01 5.042548e-03 9.907478e-22)	(2.911846e+01 4.614493e-03 0.000000e+00)	(7.298480e-02 4.280550e-04 9.907478e-22)
12.425        	(2.917421e+01 4.715722e-03 9.880553e-22)	(2.910121e+01 4.286817e-03 0.000000e+00)	(7.299263e-02 4.289046e-04 9.880553e-22)
12.45         	(2.915932e+01 5.048077e-03 9.852635e-22)	(2.908635e+01 4.617020e-03 0.000000e+00)	(7.297473e-02 4.310572e-04 9.852635e-22)
12.475        	(2.914390e+01 4.958965e-03 9.825726e-22)	(2.907097e+01 4.525505e-03 0.000000e+00)	(7.293218e-02 4.334599e-04 9.825726e-22)
12.5          	(2.912997e+01 4.983236e-03 9.799516e-22)	(2.905711e+01 4.547718e-03 0.000000e+00)	(7.286691e-02 4.355179e-04 9.799516e-22)
12.525        	(2.911347e+01 4.876898e-03 9.774240e-22)	(2.904069e+01 4.439957e-03 0.000000e+00)	(7.277731e-02 4.369410e-04 9.774240e-22)
12.55         	(2.909682e+01 5.187868e-03 9.749310e-22)	(2.902416e+01 4.747656e-03 0.000000e+00)	(7.266181e-02 4.402122e-04 9.749310e-22)
12.575        	(2.907948e+01 4.977442e-03 9.719975e-22)	(2.900696e+01 4.534410e-03 0.000000e+00)	(7.252109e-02 4.430317e-04 9.719975e-22)
12.6          	(2.906165e+01 5.103097e-03 9.677086e-22)	(2.898929e+01 4.657487e-03 0.000000e+00)	(7.235830e-02 4.456103e-04 9.677086e-22)
12.625        	(2.904180e+01 4.872179e-03 9.637370e-22)	(2.896963e+01 4.425094e-03 0.000000e+00)	(7.217325e-02 4.470843e-04 9.637370e-22)
12.65         	(2.902337e+01 5.071047e-03 9.599846e-22)	(2.895140e+01 4.621779e-03 0.000000e+00)	(7.196860e-02 4.492675e-04 9.599846e-22)
12.675        	(2.900148e+01 4.747632e-03 9.564803e-22)	(2.892975e+01 4.297374e-03 0.000000e+00)	(7.173790e-02 4.502577e-04 9.564803e-22)
12.7          	(2.897675e+01 5.119786e-03 9.533315e-22)	(2.890527e+01 4.666985e-03 0.000000e+00)	(7.147779e-02 4.528005e-04 9.533315e-22)
12.725        	(2.895703e+01 4.872889e-03 9.504230e-22)	(2.888583e+01 4.418240e-03 0.000000e+00)	(7.119904e-02 4.546486e-04 9.504230e-22)
12.75         	(2.893565e+01 5.064496e-03 9.477719e-22)	(2.886474e+01 4.607716e-03 0.000000e+00)	(7.090288e-02 4.567795e-04 9.477719e-22)
12.775        	(2.891411e+01 4.845057e-03 9.460467e-22)	(2.884352e+01 4.386904e-03 0.000000e+00)	(7.058871e-02 4.581528e-04 9.460467e-22)
12.8          	(2.889068e+01 5.057299e-03 9.450732e-22)	(2.882042e+01 4.596889e-03 0.000000e+00)	(7.025508e-02 4.604095e-04 9.450732e-22)
12.825        	(2.886748e+01 4.954707e-03 9.440896e-22)	(2.879758e+01 4.492132e-03 0.000000e+00)	(6.990098e-02 4.625753e-04 9.440896e-22)
12.85         	(2.884464e+01 5.058237e-03 9.431126e-22)	(2.877511e+01 4.592641e-03 0.000000e+00)	(6.952774e-02 4.655959e-04 9.431126e-22)
12.875        	(2.881886e+01 4.974089e-03 9.422139e-22)	(2.874973e+01 4.505571e-03 0.000000e+00)	(6.913257e-02 4.685176e-04 9.422139e-22)
12.9          	(2.879437e+01 5.069881e-03 9.413280e-22)	(2.872565e+01 4.598264e-03 0.000000e+00)	(6.871889e-02 4.716169e-04 9.413280e-22)
12.925        	(2.876872e+01 4.843213e-03 9.404333e-22)	(2.870043e+01 4.369664e-03 0.000000e+00)	(6.828787e-02 4.735487e-04 9.404333e-22)
12.95         	(2.874241e+01 5.071218e-03 9.395927e-22)	(2.867458e+01 4.594885e-03 0.000000e+00)	(6.783614e-02 4.763330e-04 9.395927e-22)
12.975        	(2.871401e+01 4.759050e-03 9.387853e-22)	(2.864665e+01 4.281437e-03 0.000000e+00)	(6.736234e-02 4.776132e-04 9.387853e-22)
13            	(2.868654e+01 5.214307e-03 9.379234e-22)	(2.861967e+01 4.733364e-03 0.000000e+00)	(6.686985e-02 4.809428e-04 9.379234e-22)
13.025        	(2.865977e+01 4.644767e-03 9.368998e-22)	(2.859340e+01 4.163012e-03 0.000000e+00)	(6.636199e-02 4.817554e-04 9.368998e-22)
13.05         	(2.863124e+01 5.128188e-03 9.359157e-22)	(2.856540e+01 4.644125e-03 0.000000e+00)	(6.583746e-02 4.840635e-04 9.359157e-22)
13.075        	(2.860405e+01 4.848116e-03 9.348862e-22)	(2.853875e+01 4.362204e-03 0.000000e+00)	(6.529721e-02 4.859124e-04 9.348862e-22)
13.1          	(2.857685e+01 5.023931e-03 9.386674e-22)	(2.851210e+01 4.536050e-03 0.000000e+00)	(6.474425e-02 4.878812e-04 9.386674e-22)
13.125        	(2.854705e+01 4.853120e-03 9.497875e-22)	(2.848287e+01 4.362749e-03 0.000000e+00)	(6.417589e-02 4.903706e-04 9.497875e-22)
13.15         	(2.851730e+01 5.057882e-03 9.602156e-22)	(2.845371e+01 4.564836e-03 0.000000e+00)	(6.358662e-02 4.930463e-04 9.602156e-22)
13.175        	(2.848840e+01 4.932209e-03 9.698856e-22)	(2.842542e+01 4.437083e-03 0.000000e+00)	(6.298487e-02 4.951260e-04 9.698856e-22)
13.2          	(2.845819e+01 4.981202e-03 9.787641e-22)	(2.839582e+01 4.483820e-03 0.000000e+00)	(6.237172e-02 4.973830e-04 9.787641e-22)
13.225        	(2.842828e+01 4.836769e-03 9.853438e-22)	(2.836654e+01 4.337774e-03 0.000000e+00)	(6.174752e-02 4.989951e-04 9.853438e-22)
13.25         	(2.839826e+01 5.022457e-03 9.908269e-22)	(2.833715e+01 4.521594e-03 0.000000e+00)	(6.111317e-02 5.008634e-04 9.908269e-22)
13.275        	(2.836693e+01 4.782611e-03 9.888795e-22)	(2.830647e+01 4.280179e-03 0.000000e+00)	(6.046195e-02 5.024315e-04 9.888795e-22)
13.3          	(2.833617e+01 5.014593e-03 9.869479e-22)	(2.827638e+01 4.509946e-03 0.000000e+00)	(5.979578e-02 5.046470e-04 9.869479e-22)
13.325        	(2.830525e+01 4.856041e-03 9.852346e-22)	(2.824614e+01 4.349632e-03 0.000000e+00)	(5.911842e-02 5.064087e-04 9.852346e-22)
13.35         	(2.827443e+01 5.083484e-03 9.837506e-22)	(2.821601e+01 4.574416e-03 0.000000e+00)	(5.842341e-02 5.090679e-04 9.837506e-22)
13.375        	(2.824271e+01 4.817758e-03 9.818384e-22)	(2.818499e+01 4.307195e-03 0.000000e+00)	(5.771784e-02 5.105626e-04 9.818384e-22)
13.4          	(2.821141e+01 5.057555e-03 9.800590e-22)	(2.815440e+01 4.544746e-03 0.000000e+00)	(5.700593e-02 5.128091e-04 9.800590e-22)
13.425        	(2.817867e+01 4.789461e-03 9.783320e-22)	(2.812239e+01 4.274602e-03 0.000000e+00)	(5.628450e-02 5.148581e-04 9.783320e-22)
13.45         	(2.814701e+01 4.985150e-03 9.766497e-22)	(2.809145e+01 4.468553e-03 0.000000e+00)	(5.555394e-02 5.165974e-04 9.766497e-22)
13.475        	(2.811456e+01 4.768046e-03 9.750251e-22)	(2.805975e+01 4.250391e-03 0.000000e+00)	(5.481364e-02 5.176545e-04 9.750251e-22)
13.5          	(2.808244e+01 4.909264e-03 9.734788e-22)	(2.802837e+01 4.389885e-03 0.000000e+00)	(5.406428e-02 5.193794e-04 9.734788e-22)
13.525        	(2.804948e+01 4.789530e-03 9.720301e-22)	(2.799617e+01 4.268717e-03 0.000000e+00)	(5.330587e-02 5.208131e-04 9.720301e-22)
13.55         	(2.801719e+01 4.911385e-03 9.705981e-22)	(2.796465e+01 4.388756e-03 0.000000e+00)	(5.253920e-02 5.226292e-04 9.705981e-22)
13.575        	(2.798473e+01 4.719908e-03 9.691630e-22)	(2.793296e+01 4.196135e-03 0.000000e+00)	(5.176506e-02 5.237731e-04 9.691630e-22)
13.6          	(2.795171e+01 4.952628e-03 9.677777e-22)	(2.790072e+01 4.426871e-03 0.000000e+00)	(5.098317e-02 5.257564e-04 9.677777e-22)
13.625        	(2.791894e+01 4.720070e-03 9.664038e-22)	(2.786875e+01 4.193065e-03 0.000000e+00)	(5.019432e-02 5.270054e-04 9.664038e-22)
13.65         	(2.788621e+01 4.859106e-03 9.650336e-22)	(2.783681e+01 4.330567e-03 0.000000e+00)	(4.939895e-02 5.285393e-04 9.650336e-22)
13.675        	(2.785298e+01 4.847813e-03 9.636921e-22)	(2.780439e+01 4.318518e-03 0.000000e+00)	(4.859254e-02 5.292948e-04 9.636921e-22)
13.7          	(2.782064e+01 4.779585e-03 9.624158e-22)	(2.777286e+01 4.249385e-03 0.000000e+00)	(4.777277e-02 5.301999e-04 9.624158e-22)
13.725        	(2.778814e+01 4.716004e-03 9.611274e-22)	(2.774120e+01 4.184964e-03 0.000000e+00)	(4.694343e-02 5.310396e-04 9.611274e-22)
13.75         	(2.775465e+01 4.822832e-03 9.599191e-22)	(2.770855e+01 4.290279e-03 0.000000e+00)	(4.610364e-02 5.325528e-04 9.599191e-22)
13.775        	(2.772251e+01 4.720991e-03 9.587400e-22)	(2.767725e+01 4.187306e-03 0.000000e+00)	(4.525859e-02 5.336849e-04 9.587400e-22)
13.8          	(2.768930e+01 4.812097e-03 9.575390e-22)	(2.764489e+01 4.276989e-03 0.000000e+00)	(4.440754e-02 5.351071e-04 9.575390e-22)
13.825        	(2.765675e+01 4.693977e-03 9.563123e-22)	(2.761320e+01 4.157841e-03 0.000000e+00)	(4.355115e-02 5.361360e-04 9.563123e-22)
13.85         	(2.762401e+01 4.705878e-03 9.551248e-22)	(2.758132e+01 4.168797e-03 0.000000e+00)	(4.268885e-02 5.370817e-04 9.551248e-22)
13.875        	(2.759069e+01 4.711571e-03 9.539993e-22)	(2.754887e+01 4.173333e-03 0.000000e+00)	(4.181998e-02 5.382382e-04 9.539993e-22)
13.9          	(2.755836e+01 4.687179e-03 9.528005e-22)	(2.751741e+01 4.147775e-03 0.000000e+00)	(4.094889e-02 5.394037e-04 9.528005e-22)
13.925        	(2.752574e+01 4.666822e-03 9.515313e-22)	(2.748566e+01 4.126282e-03 0.000000e+00)	(4.007482e-02 5.405393e-04 9.515313e-22)
13.95         	(2.749337e+01 4.672929e-03 9.502940e-22)	(2.745417e+01 4.131300e-03 0.000000e+00)	(3.919731e-02 5.416286e-04 9.502940e-22)
13.975        	(2.746111e+01 4.680578e-03 9.491224e-22)	(2.742279e+01 4.137832e-03 0.000000e+00)	(3.831667e-02 5.427462e-04 9.491224e-22)
14            	(2.742910e+01 4.615155e-03 9.480312e-22)	(2.739167e+01 4.071534e-03 0.000000e+00)	(3.743444e-02 5.436218e-04 9.480312e-22)
14.025        	(2.739765e+01 4.625450e-03 9.468547e-22)	(2.736110e+01 4.081040e-03 0.000000e+00)	(3.655002e-02 5.444093e-04 9.468547e-22)
14.05         	(2.736503e+01 4.588718e-03 9.455666e-22)	(2.732937e+01 4.043672e-03 0.000000e+00)	(3.566160e-02 5.450462e-04 9.455666e-22)
14.075        	(2.733341e+01 4.633538e-03 9.443868e-22)	(2.729864e+01 4.087461e-03 0.000000e+00)	(3.477108e-02 5.460775e-04 9.443868e-22)
14.1          	(2.730180e+01 4.559041e-03 9.432353e-22)	(2.726792e+01 4.012099e-03 0.000000e+00)	(3.387920e-02 5.469415e-04 9.432353e-22)
14.125        	(2.727016e+01 4.614355e-03 9.417463e-22)	(2.723717e+01 4.066328e-03 0.000000e+00)	(3.298628e-02 5.480266e-04 9.417463e-22)
14.15         	(2.723900e+01 4.544373e-03 9.406850e-22)	(2.720691e+01 3.995540e-03 0.000000e+00)	(3.209282e-02 5.488328e-04 9.406850e-22)
14.175        	(2.720811e+01 4.637844e-03 9.396313e-22)	(2.717691e+01 4.087854e-03 0.000000e+00)	(3.119877e-02 5.499896e-04 9.396313e-22)
14.2          	(2.717726e+01 4.445855e-03 9.386011e-22)	(2.714695e+01 3.895635e-03 0.000000e+00)	(3.030391e-02 5.502199e-04 9.386011e-22)
14.225        	(2.714649e+01 4.549857e-03 9.376004e-22)	(2.711708e+01 3.999000e-03 0.000000e+00)	(2.940920e-02 5.508573e-04 9.376004e-22)
14.25         	(2.711572e+01 4.485766e-03 9.366227e-22)	(2.708721e+01 3.934176e-03 0.000000e+00)	(2.851429e-02 5.515902e-04 9.366227e-22)
14.275        	(2.708527e+01 4.538504e-03 9.356674e-22)	(2.705765e+01 3.986135e-03 0.000000e+00)	(2.761939e-02 5.523691e-04 9.356674e-22)
14.3          	(2.705538e+01 4.438260e-03 9.347274e-22)	(2.702866e+01 3.885461e-03 0.000000e+00)	(2.672572e-02 5.527986e-04 9.347274e-22)
14.325        	(2.702507e+01 4.494456e-03 9.337935e-22)	(2.699923e+01 3.940881e-03 0.000000e+00)	(2.583267e-02 5.535744e-04 9.337935e-22)
14.35         	(2.699545e+01 4.393907e-03 9.328442e-22)	(2.697051e+01 3.840779e-03 0.000000e+00)	(2.493857e-02 5.531275e-04 9.328442e-22)
14.375        	(2.696605e+01 4.358847e-03 9.319261e-22)	(2.694201e+01 3.805559e-03 0.000000e+00)	(2.404544e-02 5.532886e-04 9.319261e-22)
14.4          	(2.693700e+01 4.520941e-03 9.309974e-22)	(2.691384e+01 3.966533e-03 0.000000e+00)	(2.315438e-02 5.544074e-04 9.309974e-22)
14.425        	(2.690854e+01 4.290584e-03 9.300742e-22)	(2.688627e+01 3.736161e-03 0.000000e+00)	(2.226596e-02 5.544229e-04 9.300742e-22)
14.45         	(2.687987e+01 4.527941e-03 9.291904e-22)	(2.685849e+01 3.972533e-03 0.000000e+00)	(2.138004e-02 5.554080e-04 9.291904e-22)
14.475        	(2.685144e+01 4.253267e-03 9.283641e-22)	(2.683094e+01 3.697776e-03 0.000000e+00)	(2.049694e-02 5.554912e-04 9.283641e-22)
14.5          	(2.682359e+01 4.477664e-03 9.275054e-22)	(2.680397e+01 3.921436e-03 0.000000e+00)	(1.961736e-02 5.562279e-04 9.275054e-22)
14.525        	(2.679532e+01 4.248073e-03 9.266404e-22)	(2.677658e+01 3.691766e-03 0.000000e+00)	(1.874050e-02 5.563072e-04 9.266404e-22)
14.55         	(2.676796e+01 4.442143e-03 9.257519e-22)	(2.675009e+01 3.885176e-03 0.000000e+00)	(1.786756e-02 5.569674e-04 9.257519e-22)
14.575        	(2.674071e+01 4.215852e-03 9.245733e-22)	(2.672371e+01 3.658871e-03 0.000000e+00)	(1.699858e-02 5.569806e-04 9.245733e-22)
14.6          	(2.671389e+01 4.357569e-03 9.234553e-22)	(2.669775e+01 3.800272e-03 0.000000e+00)	(1.613361e-02 5.572974e-04 9.234553e-22)
14.625        	(2.668668e+01 4.239705e-03 9.224554e-22)	(2.667141e+01 3.682286e-03 0.000000e+00)	(1.527213e-02 5.574188e-04 9.224554e-22)
14.65         	(2.666039e+01 4.268339e-03 9.214650e-22)	(2.664597e+01 3.710859e-03 0.000000e+00)	(1.441547e-02 5.574797e-04 9.214650e-22)
14.675        	(2.663465e+01 4.264262e-03 9.203582e-22)	(2.662108e+01 3.706545e-03 0.000000e+00)	(1.356456e-02 5.577171e-04 9.203582e-22)
14.7          	(2.660884e+01 4.173605e-03 9.193692e-22)	(2.659612e+01 3.616064e-03 0.000000e+00)	(1.271871e-02 5.575409e-04 9.193692e-22)
14.725        	(2.658287e+01 4.318303e-03 9.196829e-22)	(2.657100e+01 3.760258e-03 0.000000e+00)	(1.187720e-02 5.580448e-04 9.196829e-22)
14.75         	(2.655739e+01 4.091541e-03 9.173691e-22)	(2.654635e+01 3.533809e-03 0.000000e+00)	(1.104026e-02 5.577313e-04 9.173691e-22)
14.775        	(2.653306e+01 4.438029e-03 9.163831e-22)	(2.652285e+01 3.879260e-03 0.000000e+00)	(1.020962e-02 5.587690e-04 9.163831e-22)
14.8          	(2.650833e+01 4.024752e-03 9.153885e-22)	(2.649894e+01 3.466386e-03 0.000000e+00)	(9.384704e-03 5.583664e-04 9.153885e-22)
14.825        	(2.648366e+01 4.362118e-03 9.143081e-22)	(2.647509e+01 3.803286e-03 0.000000e+00)	(8.565086e-03 5.588322e-04 9.143081e-22)
14.85         	(2.645987e+01 4.004894e-03 9.133029e-22)	(2.645212e+01 3.446671e-03 0.000000e+00)	(7.751874e-03 5.582231e-04 9.133029e-22)
14.875        	(2.643617e+01 4.344232e-03 9.123668e-22)	(2.642922e+01 3.785469e-03 0.000000e+00)	(6.945162e-03 5.587627e-04 9.123668e-22)
14.9          	(2.641295e+01 3.971483e-03 9.114016e-22)	(2.640681e+01 3.413367e-03 0.000000e+00)	(6.145134e-03 5.581157e-04 9.114016e-22)
14.925        	(2.639038e+01 4.350705e-03 9.104847e-22)	(2.638502e+01 3.791990e-03 0.000000e+00)	(5.352657e-03 5.587144e-04 9.104847e-22)
14.95         	(2.636781e+01 3.962134e-03 9.095410e-22)	(2.636324e+01 3.404080e-03 0.000000e+00)	(4.566133e-03 5.580544e-04 9.095410e-22)
14.975        	(2.634505e+01 4.269100e-03 9.086325e-22)	(2.634127e+01 3.710816e-03 0.000000e+00)	(3.784182e-03 5.582842e-04 9.086325e-22)
15            	(2.632324e+01 3.936386e-03 9.075601e-22)	(2.632024e+01 3.378837e-03 0.000000e+00)	(3.008715e-03 5.575490e-04 9.075601e-22)
15.025        	(2.630114e+01 4.279763e-03 9.066410e-22)	(2.629890e+01 3.721797e-03 0.000000e+00)	(2.239585e-03 5.579659e-04 9.066410e-22)
15.05         	(2.627979e+01 3.897880e-03 9.044315e-22)	(2.627831e+01 3.340731e-03 0.000000e+00)	(1.477570e-03 5.571490e-04 9.044315e-22)
15.075        	(2.625881e+01 4.152598e-03 9.048894e-22)	(2.625808e+01 3.595749e-03 0.000000e+00)	(7.232029e-04 5.568489e-04 9.048894e-22)
15.1          	(2.623802e+01 3.973008e-03 9.040086e-22)	(2.623804e+01 3.416654e-03 0.000000e+00)	(-2.376126e-05 5.563546e-04 9.040086e-22)
15.125        	(2.621756e+01 4.158069e-03 9.031559e-22)	(2.621832e+01 3.601503e-03 0.000000e+00)	(-7.630093e-04 5.565655e-04 9.031559e-22)
15.15         	(2.619740e+01 3.954422e-03 9.022942e-22)	(2.619890e+01 3.398346e-03 0.000000e+00)	(-1.494594e-03 5.560762e-04 9.022942e-22)
15.175        	(2.617822e+01 4.243830e-03 9.014552e-22)	(2.618043e+01 3.687249e-03 0.000000e+00)	(-2.217540e-03 5.565810e-04 9.014552e-22)
15.2          	(2.615834e+01 3.852753e-03 9.006015e-22)	(2.616127e+01 3.297140e-03 0.000000e+00)	(-2.933167e-03 5.556127e-04 9.006015e-22)
15.225        	(2.613942e+01 4.129446e-03 8.997775e-22)	(2.614306e+01 3.574107e-03 0.000000e+00)	(-3.640100e-03 5.553386e-04 8.997775e-22)
15.25         	(2.612047e+01 3.900067e-03 8.989510e-22)	(2.612481e+01 3.345385e-03 0.000000e+00)	(-4.339043e-03 5.546815e-04 8.989510e-22)
15.275        	(2.610232e+01 4.079672e-03 8.981282e-22)	(2.610735e+01 3.525178e-03 0.000000e+00)	(-5.030011e-03 5.544939e-04 8.981282e-22)
15.3          	(2.608411e+01 3.904310e-03 8.973070e-22)	(2.608982e+01 3.350473e-03 0.000000e+00)	(-5.712463e-03 5.538377e-04 8.973070e-22)
15.325        	(2.606621e+01 4.105028e-03 8.964218e-22)	(2.607259e+01 3.551158e-03 0.000000e+00)	(-6.386862e-03 5.538699e-04 8.964218e-22)
15.35         	(2.604901e+01 3.849486e-03 8.955409e-22)	(2.605607e+01 3.296481e-03 0.000000e+00)	(-7.052253e-03 5.530044e-04 8.955409e-22)
15.375        	(2.603096e+01 4.140922e-03 8.946689e-22)	(2.603867e+01 3.587770e-03 0.000000e+00)	(-7.709418e-03 5.531517e-04 8.946689e-22)
15.4          	(2.601457e+01 3.796661e-03 8.937966e-22)	(2.602292e+01 3.244542e-03 0.000000e+00)	(-8.357657e-03 5.521187e-04 8.937966e-22)
15.425        	(2.599790e+01 4.126602e-03 8.929911e-22)	(2.600689e+01 3.574484e-03 0.000000e+00)	(-8.996904e-03 5.521172e-04 8.929911e-22)
15.45         	(2.598160e+01 3.749629e-03 8.921867e-22)	(2.599122e+01 3.198733e-03 0.000000e+00)	(-9.627034e-03 5.508958e-04 8.921867e-22)
15.475        	(2.596530e+01 4.176141e-03 8.914458e-22)	(2.597555e+01 3.624994e-03 0.000000e+00)	(-1.024771e-02 5.511474e-04 8.914458e-22)
15.5          	(2.595009e+01 3.719952e-03 8.906959e-22)	(2.596095e+01 3.170029e-03 0.000000e+00)	(-1.085893e-02 5.499231e-04 8.906959e-22)
15.525        	(2.593453e+01 4.202495e-03 8.900178e-22)	(2.594599e+01 3.652261e-03 0.000000e+00)	(-1.146163e-02 5.502346e-04 8.900178e-22)
15.55         	(2.592011e+01 3.757840e-03 8.893150e-22)	(2.593216e+01 3.208554e-03 0.000000e+00)	(-1.205424e-02 5.492850e-04 8.893150e-22)
15.575        	(2.590533e+01 3.926035e-03 8.886728e-22)	(2.591796e+01 3.377844e-03 0.000000e+00)	(-1.263753e-02 5.481912e-04 8.886728e-22)
15.6          	(2.589036e+01 3.940840e-03 8.879329e-22)	(2.590357e+01 3.392996e-03 0.000000e+00)	(-1.321234e-02 5.478442e-04 8.879329e-22)
15.625        	(2.587657e+01 3.831182e-03 8.871768e-22)	(2.589035e+01 3.284294e-03 0.000000e+00)	(-1.377714e-02 5.468883e-04 8.871768e-22)
15.65         	(2.586173e+01 4.032198e-03 8.864398e-22)	(2.587606e+01 3.485415e-03 0.000000e+00)	(-1.433372e-02 5.467827e-04 8.864398e-22)
15.675        	(2.584892e+01 3.752028e-03 8.856937e-22)	(2.586381e+01 3.207298e-03 0.000000e+00)	(-1.488123e-02 5.447297e-04 8.856937e-22)
15.7          	(2.583588e+01 4.082071e-03 8.849760e-22)	(2.585130e+01 3.537700e-03 0.000000e+00)	(-1.542176e-02 5.443709e-04 8.849760e-22)
15.725        	(2.582217e+01 3.648221e-03 8.842391e-22)	(2.583812e+01 3.105404e-03 0.000000e+00)	(-1.595497e-02 5.428167e-04 8.842391e-22)
15.75         	(2.580977e+01 4.169980e-03 8.835775e-22)	(2.582625e+01 3.626918e-03 0.000000e+00)	(-1.647797e-02 5.430621e-04 8.835775e-22)
15.775        	(2.579719e+01 3.632581e-03 8.828838e-22)	(2.581418e+01 3.090957e-03 0.000000e+00)	(-1.699124e-02 5.416242e-04 8.828838e-22)
15.8          	(2.578542e+01 4.046873e-03 8.821602e-22)	(2.580292e+01 3.505742e-03 0.000000e+00)	(-1.749424e-02 5.411309e-04 8.821602e-22)
15.825        	(2.577424e+01 3.725430e-03 8.814230e-22)	(2.579223e+01 3.185449e-03 0.000000e+00)	(-1.798642e-02 5.399812e-04 8.814230e-22)
15.85         	(2.576234e+01 4.025451e-03 8.801442e-22)	(2.578080e+01 3.485807e-03 0.000000e+00)	(-1.846914e-02 5.396442e-04 8.801442e-22)
15.875        	(2.575018e+01 3.737504e-03 8.793447e-22)	(2.576912e+01 3.199010e-03 0.000000e+00)	(-1.894427e-02 5.384939e-04 8.793447e-22)
15.9          	(2.573925e+01 3.997126e-03 8.788440e-22)	(2.575866e+01 3.458968e-03 0.000000e+00)	(-1.940900e-02 5.381580e-04 8.788440e-22)
15.925        	(2.572810e+01 3.716487e-03 8.785896e-22)	(2.574796e+01 3.179642e-03 0.000000e+00)	(-1.986397e-02 5.368442e-04 8.785896e-22)
15.95         	(2.571755e+01 4.042288e-03 8.779336e-22)	(2.573785e+01 3.505583e-03 0.000000e+00)	(-2.030830e-02 5.367053e-04 8.779336e-22)
15.975        	(2.570676e+01 3.593482e-03 8.772439e-22)	(2.572750e+01 3.058631e-03 0.000000e+00)	(-2.074370e-02 5.348517e-04 8.772439e-22)
16            	(2.569724e+01 4.154784e-03 8.765937e-22)	(2.571841e+01 3.619782e-03 0.000000e+00)	(-2.116763e-02 5.350024e-04 8.765937e-22)
16.025        	(2.568791e+01 3.644916e-03 8.759091e-22)	(2.570949e+01 3.111152e-03 0.000000e+00)	(-2.158091e-02 5.337640e-04 8.759091e-22)
16.05         	(2.567787e+01 4.047990e-03 8.752558e-22)	(2.569985e+01 3.514558e-03 0.000000e+00)	(-2.198465e-02 5.334317e-04 8.752558e-22)
16.075        	(2.566857e+01 3.658533e-03 8.745770e-22)	(2.569094e+01 3.126611e-03 0.000000e+00)	(-2.237925e-02 5.319213e-04 8.745770e-22)
16.1          	(2.565941e+01 4.053518e-03 8.739292e-22)	(2.568217e+01 3.521947e-03 0.000000e+00)	(-2.276407e-02 5.315705e-04 8.739292e-22)
16.125        	(2.565036e+01 3.673182e-03 8.732670e-22)	(2.567350e+01 3.143010e-03 0.000000e+00)	(-2.313917e-02 5.301720e-04 8.732670e-22)
16.15         	(2.564165e+01 4.015548e-03 8.726306e-22)	(2.566515e+01 3.485813e-03 0.000000e+00)	(-2.350443e-02 5.297348e-04 8.726306e-22)
16.175        	(2.563333e+01 3.719106e-03 8.719773e-22)	(2.565719e+01 3.190636e-03 0.000000e+00)	(-2.385980e-02 5.284704e-04 8.719773e-22)
16.2          	(2.562543e+01 3.903345e-03 8.713676e-22)	(2.564964e+01 3.375389e-03 0.000000e+00)	(-2.420540e-02 5.279555e-04 8.713676e-22)
16.225        	(2.561702e+01 3.553461e-03 8.707238e-22)	(2.564156e+01 3.027303e-03 0.000000e+00)	(-2.454147e-02 5.261586e-04 8.707238e-22)
16.25         	(2.561028e+01 4.114267e-03 8.700914e-22)	(2.563515e+01 3.588323e-03 0.000000e+00)	(-2.486681e-02 5.259432e-04 8.700914e-22)
16.275        	(2.560222e+01 3.636208e-03 8.694694e-22)	(2.562740e+01 3.111865e-03 0.000000e+00)	(-2.518378e-02 5.243428e-04 8.694694e-22)
16.3          	(2.559473e+01 4.009977e-03 8.688842e-22)	(2.562022e+01 3.485837e-03 0.000000e+00)	(-2.549164e-02 5.241406e-04 8.688842e-22)
16.325        	(2.558834e+01 3.699100e-03 8.682579e-22)	(2.561413e+01 3.175947e-03 0.000000e+00)	(-2.578913e-02 5.231523e-04 8.682579e-22)
16.35         	(2.558159e+01 3.921836e-03 8.674372e-22)	(2.560767e+01 3.399431e-03 0.000000e+00)	(-2.607704e-02 5.224048e-04 8.674372e-22)
16.375        	(2.557574e+01 3.844611e-03 8.664833e-22)	(2.560210e+01 3.322870e-03 0.000000e+00)	(-2.635457e-02 5.217405e-04 8.664833e-22)
16.4          	(2.556896e+01 3.702627e-03 8.663027e-22)	(2.559558e+01 3.182604e-03 0.000000e+00)	(-2.662281e-02 5.200233e-04 8.663027e-22)
16.425        	(2.556167e+01 3.820269e-03 8.658764e-22)	(2.558855e+01 3.301506e-03 0.000000e+00)	(-2.688308e-02 5.187629e-04 8.658764e-22)
16.45         	(2.555548e+01 3.946500e-03 8.653003e-22)	(2.558262e+01 3.428019e-03 0.000000e+00)	(-2.713429e-02 5.184809e-04 8.653003e-22)
16.475        	(2.555026e+01 3.825771e-03 8.647324e-22)	(2.557764e+01 3.308127e-03 0.000000e+00)	(-2.737467e-02 5.176444e-04 8.647324e-22)
16.5          	(2.554576e+01 3.925627e-03 8.641588e-22)	(2.557336e+01 3.408720e-03 0.000000e+00)	(-2.760355e-02 5.169072e-04 8.641588e-22)
16.525        	(2.554030e+01 3.820239e-03 8.635816e-22)	(2.556812e+01 3.304461e-03 0.000000e+00)	(-2.782290e-02 5.157773e-04 8.635816e-22)
16.55         	(2.553509e+01 3.860641e-03 8.629853e-22)	(2.556313e+01 3.346012e-03 0.000000e+00)	(-2.803251e-02 5.146287e-04 8.629853e-22)
16.575        	(2.552956e+01 3.846211e-03 8.624197e-22)	(2.555779e+01 3.332758e-03 0.000000e+00)	(-2.823238e-02 5.134536e-04 8.624197e-22)
16.6          	(2.552476e+01 3.861957e-03 8.618047e-22)	(2.555318e+01 3.349288e-03 0.000000e+00)	(-2.842481e-02 5.126690e-04 8.618047e-22)
16.625        	(2.552010e+01 3.883985e-03 8.611973e-22)	(2.554871e+01 3.372135e-03 0.000000e+00)	(-2.861104e-02 5.118499e-04 8.611973e-22)
16.65         	(2.551567e+01 3.804055e-03 8.606211e-22)	(2.554446e+01 3.293555e-03 0.000000e+00)	(-2.878906e-02 5.104997e-04 8.606211e-22)
16.675        	(2.551215e+01 4.006187e-03 8.600548e-22)	(2.554110e+01 3.495958e-03 0.000000e+00)	(-2.895843e-02 5.102289e-04 8.600548e-22)
16.7          	(2.550825e+01 3.745323e-03 8.594993e-22)	(2.553737e+01 3.236270e-03 0.000000e+00)	(-2.912183e-02 5.090527e-04 8.594993e-22)
16.725        	(2.550419e+01 4.013912e-03 8.590343e-22)	(2.553347e+01 3.506240e-03 0.000000e+00)	(-2.927767e-02 5.076726e-04 8.590343e-22)
16.75         	(2.550040e+01 3.804269e-03 8.584741e-22)	(2.552983e+01 3.297462e-03 0.000000e+00)	(-2.942534e-02 5.068069e-04 8.584741e-22)
16.775        	(2.549773e+01 4.059713e-03 8.579245e-22)	(2.552729e+01 3.552924e-03 0.000000e+00)	(-2.956346e-02 5.067890e-04 8.579245e-22)
16.8          	(2.549325e+01 3.716237e-03 8.573696e-22)	(2.552295e+01 3.210999e-03 0.000000e+00)	(-2.969458e-02 5.052377e-04 8.573696e-22)
16.825        	(2.549022e+01 4.034647e-03 8.568278e-22)	(2.552004e+01 3.530145e-03 0.000000e+00)	(-2.981806e-02 5.045022e-04 8.568278e-22)
16.85         	(2.548750e+01 3.739420e-03 8.562779e-22)	(2.551743e+01 3.236438e-03 0.000000e+00)	(-2.993281e-02 5.029825e-04 8.562779e-22)
16.875        	(2.548401e+01 4.130712e-03 8.557493e-22)	(2.551405e+01 3.627890e-03 0.000000e+00)	(-3.004005e-02 5.028222e-04 8.557493e-22)
16.9          	(2.548283e+01 3.772060e-03 8.552016e-22)	(2.551297e+01 3.270460e-03 0.000000e+00)	(-3.013802e-02 5.016006e-04 8.552016e-22)
16.925        	(2.547947e+01 3.996136e-03 8.547006e-22)	(2.550970e+01 3.495503e-03 0.000000e+00)	(-3.022932e-02 5.006335e-04 8.547006e-22)
16.95         	(2.547780e+01 3.811258e-03 8.542107e-22)	(2.550812e+01 3.311930e-03 0.000000e+00)	(-3.031336e-02 4.993279e-04 8.542107e-22)
16.975        	(2.547517e+01 3.930103e-03 8.536221e-22)	(2.550556e+01 3.431936e-03 0.000000e+00)	(-3.039021e-02 4.981664e-04 8.536221e-22)
17            	(2.547453e+01 3.948827e-03 8.530874e-22)	(2.550499e+01 3.451443e-03 0.000000e+00)	(-3.045784e-02 4.973839e-04 8.530874e-22)
17.025        	(2.547193e+01 3.911720e-03 8.525782e-22)	(2.550245e+01 3.415353e-03 0.000000e+00)	(-3.051893e-02 4.963669e-04 8.525782e-22)
17.05         	(2.547024e+01 3.921145e-03 8.520747e-22)	(2.550081e+01 3.425757e-03 0.000000e+00)	(-3.057403e-02 4.953888e-04 8.520747e-22)
17.075        	(2.546874e+01 4.009290e-03 8.515737e-22)	(2.549936e+01 3.514314e-03 0.000000e+00)	(-3.062228e-02 4.949769e-04 8.515737e-22)
17.1          	(2.546789e+01 3.895157e-03 8.510884e-22)	(2.549855e+01 3.401444e-03 0.000000e+00)	(-3.066272e-02 4.937131e-04 8.510884e-22)
17.125        	(2.546650e+01 4.045688e-03 8.505507e-22)	(2.549720e+01 3.552529e-03 0.000000e+00)	(-3.069633e-02 4.931587e-04 8.505507e-22)
17.15         	(2.546585e+01 3.849488e-03 8.500319e-22)	(2.549658e+01 3.357574e-03 0.000000e+00)	(-3.072320e-02 4.919141e-04 8.500319e-22)
17.175        	(2.546485e+01 4.034162e-03 8.495336e-22)	(2.549560e+01 3.543071e-03 0.000000e+00)	(-3.074385e-02 4.910909e-04 8.495336e-22)
17.2          	(2.546536e+01 3.968944e-03 8.490262e-22)	(2.549612e+01 3.478626e-03 0.000000e+00)	(-3.075660e-02 4.903182e-04 8.490262e-22)
17.225        	(2.546407e+01 3.844727e-03 8.485230e-22)	(2.549484e+01 3.356028e-03 0.000000e+00)	(-3.076360e-02 4.886988e-04 8.485230e-22)
17.25         	(2.546348e+01 3.942557e-03 8.480309e-22)	(2.549425e+01 3.455193e-03 0.000000e+00)	(-3.076447e-02 4.873645e-04 8.480309e-22)
17.275        	(2.546286e+01 4.079404e-03 8.475364e-22)	(2.549362e+01 3.592379e-03 0.000000e+00)	(-3.075924e-02 4.870254e-04 8.475364e-22)
17.3          	(2.546376e+01 3.956534e-03 8.470429e-22)	(2.549451e+01 3.470332e-03 0.000000e+00)	(-3.074686e-02 4.862023e-04 8.470429e-22)
17.325        	(2.546399e+01 4.030797e-03 8.465630e-22)	(2.549472e+01 3.545347e-03 0.000000e+00)	(-3.072850e-02 4.854504e-04 8.465630e-22)
17.35         	(2.546414e+01 3.960064e-03 8.460735e-22)	(2.549484e+01 3.475555e-03 0.000000e+00)	(-3.070502e-02 4.845091e-04 8.460735e-22)
17.375        	(2.546465e+01 4.012752e-03 8.455921e-22)	(2.549532e+01 3.529145e-03 0.000000e+00)	(-3.067582e-02 4.836073e-04 8.455921e-22)