# Moment      
# CofR        : (0.000000e+00 0.000000e+00 0.000000e+00)
#
# Time        	(total_x total_y total_z)	(pressure_x pressure_y pressure_z)	(viscous_x viscous_y viscous_z)
12.025        	(-2.496613e-03 1.465030e+01 -9.114948e-03)	(-2.298945e-03 1.461549e+01 -1.050679e-02)	(-1.976681e-04 3.481335e-02 1.391843e-03)
12.05         	(-2.532512e-03 1.464979e+01 -1.022956e-02)	(-2.333624e-03 1.461477e+01 -1.161321e-02)	(-1.988888e-04 3.502466e-02 1.383654e-03)
12.075        	(-2.493354e-03 1.465055e+01 -1.021470e-02)	(-2.293739e-03 1.461533e+01 -1.159406e-02)	(-1.996150e-04 3.522114e-02 1.379360e-03)
12.1          	(-2.472873e-03 1.464861e+01 -1.108442e-02)	(-2.272540e-03 1.461321e+01 -1.245927e-02)	(-2.003336e-04 3.540219e-02 1.374856e-03)
12.125        	(-2.426459e-03 1.464720e+01 -1.113945e-02)	(-2.225103e-03 1.461164e+01 -1.250236e-02)	(-2.013564e-04 3.556749e-02 1.362914e-03)
12.15         	(-2.531269e-03 1.464388e+01 -1.141419e-02)	(-2.328326e-03 1.460817e+01 -1.276111e-02)	(-2.029425e-04 3.571588e-02 1.346925e-03)
12.175        	(-2.358159e-03 1.464139e+01 -1.121657e-02)	(-2.154430e-03 1.460553e+01 -1.255004e-02)	(-2.037289e-04 3.585057e-02 1.333472e-03)
12.2          	(-2.493842e-03 1.463538e+01 -1.148935e-02)	(-2.289220e-03 1.459941e+01 -1.281175e-02)	(-2.046218e-04 3.596975e-02 1.322402e-03)
12.225        	(-2.395452e-03 1.463163e+01 -1.095655e-02)	(-2.189662e-03 1.459556e+01 -1.226931e-02)	(-2.057901e-04 3.607572e-02 1.312754e-03)
12.25         	(-2.528024e-03 1.462736e+01 -1.161778e-02)	(-2.320630e-03 1.459119e+01 -1.291911e-02)	(-2.073941e-04 3.616987e-02 1.301330e-03)
12.275        	(-2.420460e-03 1.462381e+01 -1.076773e-02)	(-2.211898e-03 1.458756e+01 -1.205956e-02)	(-2.085615e-04 3.625316e-02 1.291828e-03)
12.3          	(-2.542987e-03 1.461860e+01 -1.118086e-02)	(-2.333343e-03 1.458227e+01 -1.246640e-02)	(-2.096447e-04 3.632829e-02 1.285541e-03)
12.325        	(-2.483036e-03 1.461377e+01 -1.125476e-02)	(-2.272331e-03 1.457737e+01 -1.252868e-02)	(-2.107052e-04 3.639280e-02 1.273922e-03)
12.35         	(-2.550373e-03 1.460813e+01 -1.108553e-02)	(-2.338338e-03 1.457169e+01 -1.234753e-02)	(-2.120353e-04 3.644105e-02 1.262003e-03)
12.375        	(-2.461123e-03 1.460152e+01 -1.134278e-02)	(-2.248127e-03 1.456505e+01 -1.259295e-02)	(-2.129955e-04 3.647298e-02 1.250165e-03)
12.4          	(-2.521274e-03 1.459572e+01 -1.140372e-02)	(-2.307246e-03 1.455923e+01 -1.264173e-02)	(-2.140275e-04 3.649240e-02 1.238015e-03)
12.425        	(-2.357861e-03 1.458710e+01 -1.167892e-02)	(-2.143409e-03 1.455061e+01 -1.290455e-02)	(-2.144523e-04 3.649632e-02 1.225626e-03)
12.45         	(-2.524038e-03 1.457966e+01 -1.165773e-02)	(-2.308510e-03 1.454317e+01 -1.287221e-02)	(-2.155286e-04 3.648736e-02 1.214480e-03)
12.475        	(-2.479483e-03 1.457195e+01 -1.118570e-02)	(-2.262753e-03 1.453549e+01 -1.238920e-02)	(-2.167299e-04 3.646609e-02 1.203496e-03)
12.5          	(-2.491618e-03 1.456499e+01 -1.122474e-02)	(-2.273859e-03 1.452855e+01 -1.241805e-02)	(-2.177590e-04 3.643346e-02 1.193310e-03)
12.525        	(-2.438449e-03 1.455673e+01 -1.172952e-02)	(-2.219979e-03 1.452035e+01 -1.291058e-02)	(-2.184705e-04 3.638865e-02 1.181058e-03)
12.55         	(-2.593934e-03 1.454841e+01 -1.189582e-02)	(-2.373828e-03 1.451208e+01 -1.306279e-02)	(-2.201061e-04 3.633090e-02 1.166966e-03)
12.575        	(-2.488721e-03 1.453974e+01 -1.181281e-02)	(-2.267205e-03 1.450348e+01 -1.296815e-02)	(-2.215158e-04 3.626054e-02 1.155338e-03)
12.6          	(-2.551549e-03 1.453082e+01 -1.187736e-02)	(-2.328743e-03 1.449465e+01 -1.302017e-02)	(-2.228052e-04 3.617915e-02 1.142802e-03)
12.625        	(-2.436089e-03 1.452090e+01 -1.209752e-02)	(-2.212547e-03 1.448481e+01 -1.322884e-02)	(-2.235422e-04 3.608662e-02 1.131327e-03)
12.65         	(-2.535523e-03 1.451169e+01 -1.212013e-02)	(-2.310890e-03 1.447570e+01 -1.323942e-02)	(-2.246337e-04 3.598430e-02 1.119282e-03)
12.675        	(-2.373816e-03 1.450074e+01 -1.246730e-02)	(-2.148687e-03 1.446487e+01 -1.357286e-02)	(-2.251288e-04 3.586895e-02 1.105559e-03)
12.7          	(-2.559893e-03 1.448838e+01 -1.240592e-02)	(-2.333493e-03 1.445264e+01 -1.349732e-02)	(-2.264003e-04 3.573890e-02 1.091394e-03)
12.725        	(-2.436444e-03 1.447851e+01 -1.194076e-02)	(-2.209120e-03 1.444292e+01 -1.302150e-02)	(-2.273243e-04 3.559952e-02 1.080732e-03)
12.75         	(-2.532248e-03 1.446782e+01 -1.184090e-02)	(-2.303858e-03 1.443237e+01 -1.291152e-02)	(-2.283898e-04 3.545144e-02 1.070615e-03)
12.775        	(-2.422528e-03 1.445706e+01 -1.274267e-02)	(-2.193452e-03 1.442176e+01 -1.380184e-02)	(-2.290764e-04 3.529435e-02 1.059162e-03)
12.8          	(-2.528649e-03 1.444534e+01 -1.221983e-02)	(-2.298445e-03 1.441021e+01 -1.326570e-02)	(-2.302048e-04 3.512754e-02 1.045864e-03)
12.825        	(-2.477354e-03 1.443374e+01 -1.265642e-02)	(-2.246066e-03 1.439879e+01 -1.368873e-02)	(-2.312876e-04 3.495049e-02 1.032310e-03)
12.85         	(-2.529119e-03 1.442232e+01 -1.261067e-02)	(-2.296321e-03 1.438756e+01 -1.363863e-02)	(-2.327980e-04 3.476387e-02 1.027959e-03)
12.875        	(-2.487044e-03 1.440943e+01 -1.214179e-02)	(-2.252786e-03 1.437487e+01 -1.316494e-02)	(-2.342588e-04 3.456629e-02 1.023152e-03)
12.9          	(-2.534940e-03 1.439718e+01 -1.246701e-02)	(-2.299132e-03 1.436282e+01 -1.348081e-02)	(-2.358085e-04 3.435945e-02 1.013804e-03)
12.925        	(-2.421607e-03 1.438436e+01 -1.215597e-02)	(-2.184832e-03 1.435022e+01 -1.316056e-02)	(-2.367744e-04 3.414394e-02 1.004593e-03)
12.95         	(-2.535609e-03 1.437121e+01 -1.211086e-02)	(-2.297442e-03 1.433729e+01 -1.310443e-02)	(-2.381665e-04 3.391807e-02 9.935773e-04)
12.975        	(-2.379525e-03 1.435701e+01 -1.349383e-02)	(-2.140719e-03 1.432333e+01 -1.447283e-02)	(-2.388066e-04 3.368117e-02 9.789937e-04)
13            	(-2.607153e-03 1.434327e+01 -1.153582e-02)	(-2.366682e-03 1.430984e+01 -1.250563e-02)	(-2.404714e-04 3.343492e-02 9.698134e-04)
13.025        	(-2.322384e-03 1.432988e+01 -1.310297e-02)	(-2.081506e-03 1.429670e+01 -1.406154e-02)	(-2.408777e-04 3.318099e-02 9.585649e-04)
13.05         	(-2.564094e-03 1.431562e+01 -1.214084e-02)	(-2.322062e-03 1.428270e+01 -1.308856e-02)	(-2.420317e-04 3.291873e-02 9.477250e-04)
13.075        	(-2.424058e-03 1.430203e+01 -1.226896e-02)	(-2.181102e-03 1.426938e+01 -1.320791e-02)	(-2.429562e-04 3.264860e-02 9.389504e-04)
13.1          	(-2.511966e-03 1.428842e+01 -1.312267e-02)	(-2.268025e-03 1.425605e+01 -1.404847e-02)	(-2.439406e-04 3.237212e-02 9.257994e-04)
13.125        	(-2.426560e-03 1.427352e+01 -1.309249e-02)	(-2.181375e-03 1.424144e+01 -1.400418e-02)	(-2.451853e-04 3.208794e-02 9.116896e-04)
13.15         	(-2.528941e-03 1.425865e+01 -1.304702e-02)	(-2.282418e-03 1.422686e+01 -1.394546e-02)	(-2.465231e-04 3.179331e-02 8.984330e-04)
13.175        	(-2.466104e-03 1.424420e+01 -1.318176e-02)	(-2.218541e-03 1.421271e+01 -1.406862e-02)	(-2.475630e-04 3.149244e-02 8.868628e-04)
13.2          	(-2.490601e-03 1.422910e+01 -1.314787e-02)	(-2.241910e-03 1.419791e+01 -1.402387e-02)	(-2.486915e-04 3.118586e-02 8.760030e-04)
13.225        	(-2.418384e-03 1.421414e+01 -1.332827e-02)	(-2.168887e-03 1.418327e+01 -1.419517e-02)	(-2.494976e-04 3.087376e-02 8.668987e-04)
13.25         	(-2.511228e-03 1.419913e+01 -1.375908e-02)	(-2.260797e-03 1.416858e+01 -1.461431e-02)	(-2.504317e-04 3.055658e-02 8.552314e-04)
13.275        	(-2.391305e-03 1.418347e+01 -1.329198e-02)	(-2.140090e-03 1.415324e+01 -1.413230e-02)	(-2.512157e-04 3.023097e-02 8.403211e-04)
13.3          	(-2.507297e-03 1.416809e+01 -1.389878e-02)	(-2.254973e-03 1.413819e+01 -1.472885e-02)	(-2.523235e-04 2.989789e-02 8.300650e-04)
13.325        	(-2.428021e-03 1.415263e+01 -1.312511e-02)	(-2.174816e-03 1.412307e+01 -1.394444e-02)	(-2.532044e-04 2.955921e-02 8.193282e-04)
13.35         	(-2.541742e-03 1.413722e+01 -1.427651e-02)	(-2.287208e-03 1.410800e+01 -1.508060e-02)	(-2.545340e-04 2.921170e-02 8.040866e-04)
13.375        	(-2.408879e-03 1.412135e+01 -1.398954e-02)	(-2.153598e-03 1.409250e+01 -1.477957e-02)	(-2.552813e-04 2.885892e-02 7.900280e-04)
13.4          	(-2.528778e-03 1.410570e+01 -1.381831e-02)	(-2.272373e-03 1.407720e+01 -1.459717e-02)	(-2.564045e-04 2.850297e-02 7.788568e-04)
13.425        	(-2.394730e-03 1.408934e+01 -1.426961e-02)	(-2.137301e-03 1.406119e+01 -1.503662e-02)	(-2.574290e-04 2.814225e-02 7.670144e-04)
13.45         	(-2.492575e-03 1.407350e+01 -1.403232e-02)	(-2.234276e-03 1.404573e+01 -1.478884e-02)	(-2.582987e-04 2.777697e-02 7.565205e-04)
13.475        	(-2.384023e-03 1.405728e+01 -1.455948e-02)	(-2.125196e-03 1.402988e+01 -1.530492e-02)	(-2.588272e-04 2.740682e-02 7.454442e-04)
13.5          	(-2.454632e-03 1.404122e+01 -1.459850e-02)	(-2.194942e-03 1.401419e+01 -1.533347e-02)	(-2.596897e-04 2.703214e-02 7.349693e-04)
13.525        	(-2.394765e-03 1.402474e+01 -1.461434e-02)	(-2.134359e-03 1.399809e+01 -1.533873e-02)	(-2.604065e-04 2.665293e-02 7.243880e-04)
13.55         	(-2.455693e-03 1.400859e+01 -1.477619e-02)	(-2.194378e-03 1.398232e+01 -1.548941e-02)	(-2.613146e-04 2.626960e-02 7.132142e-04)
13.575        	(-2.359954e-03 1.399236e+01 -1.450514e-02)	(-2.098068e-03 1.396648e+01 -1.520608e-02)	(-2.618866e-04 2.588253e-02 7.009357e-04)
13.6          	(-2.476314e-03 1.397585e+01 -1.463767e-02)	(-2.213436e-03 1.395036e+01 -1.532772e-02)	(-2.628782e-04 2.549158e-02 6.900548e-04)
13.625        	(-2.360035e-03 1.395947e+01 -1.502789e-02)	(-2.096532e-03 1.393437e+01 -1.570720e-02)	(-2.635027e-04 2.509716e-02 6.793131e-04)
13.65         	(-2.429553e-03 1.394311e+01 -1.493640e-02)	(-2.165283e-03 1.391841e+01 -1.560711e-02)	(-2.642696e-04 2.469947e-02 6.707167e-04)
13.675        	(-2.423906e-03 1.392649e+01 -1.518944e-02)	(-2.159259e-03 1.390219e+01 -1.584207e-02)	(-2.646474e-04 2.429627e-02 6.526321e-04)
13.7          	(-2.389792e-03 1.391032e+01 -1.505923e-02)	(-2.124692e-03 1.388643e+01 -1.569683e-02)	(-2.650999e-04 2.388639e-02 6.375991e-04)
13.725        	(-2.358002e-03 1.389407e+01 -1.547014e-02)	(-2.092482e-03 1.387060e+01 -1.609462e-02)	(-2.655198e-04 2.347171e-02 6.244802e-04)
13.75         	(-2.411416e-03 1.387733e+01 -1.518074e-02)	(-2.145140e-03 1.385428e+01 -1.579157e-02)	(-2.662764e-04 2.305182e-02 6.108254e-04)
13.775        	(-2.360496e-03 1.386125e+01 -1.530809e-02)	(-2.093653e-03 1.383862e+01 -1.590796e-02)	(-2.668425e-04 2.262930e-02 5.998627e-04)
13.8          	(-2.406048e-03 1.384465e+01 -1.548314e-02)	(-2.138495e-03 1.382245e+01 -1.607238e-02)	(-2.675536e-04 2.220377e-02 5.892439e-04)
13.825        	(-2.346988e-03 1.382837e+01 -1.560108e-02)	(-2.078920e-03 1.380660e+01 -1.617976e-02)	(-2.680680e-04 2.177557e-02 5.786780e-04)
13.85         	(-2.352939e-03 1.381200e+01 -1.611770e-02)	(-2.084398e-03 1.379066e+01 -1.668354e-02)	(-2.685408e-04 2.134442e-02 5.658390e-04)
13.875        	(-2.355786e-03 1.379534e+01 -1.570741e-02)	(-2.086667e-03 1.377443e+01 -1.626528e-02)	(-2.691191e-04 2.090999e-02 5.578657e-04)
13.9          	(-2.343590e-03 1.377918e+01 -1.591373e-02)	(-2.073888e-03 1.375871e+01 -1.646230e-02)	(-2.697019e-04 2.047445e-02 5.485741e-04)
13.925        	(-2.333411e-03 1.376287e+01 -1.592380e-02)	(-2.063141e-03 1.374283e+01 -1.646120e-02)	(-2.702697e-04 2.003741e-02 5.374066e-04)
13.95         	(-2.336464e-03 1.374668e+01 -1.598201e-02)	(-2.065650e-03 1.372708e+01 -1.650871e-02)	(-2.708143e-04 1.959866e-02 5.267006e-04)
13.975        	(-2.340289e-03 1.373056e+01 -1.606509e-02)	(-2.068916e-03 1.371140e+01 -1.658272e-02)	(-2.713731e-04 1.915833e-02 5.176239e-04)
14            	(-2.307578e-03 1.371455e+01 -1.593280e-02)	(-2.035767e-03 1.369583e+01 -1.644176e-02)	(-2.718109e-04 1.871722e-02 5.089663e-04)
14.025        	(-2.312725e-03 1.369883e+01 -1.626877e-02)	(-2.040520e-03 1.368055e+01 -1.676748e-02)	(-2.722046e-04 1.827501e-02 4.987077e-04)
14.05         	(-2.294359e-03 1.368252e+01 -1.651921e-02)	(-2.021836e-03 1.366469e+01 -1.700829e-02)	(-2.725231e-04 1.783080e-02 4.890795e-04)
14.075        	(-2.316769e-03 1.366671e+01 -1.652684e-02)	(-2.043730e-03 1.364932e+01 -1.700650e-02)	(-2.730387e-04 1.738554e-02 4.796598e-04)
14.1          	(-2.279520e-03 1.365090e+01 -1.658164e-02)	(-2.006050e-03 1.363396e+01 -1.705178e-02)	(-2.734707e-04 1.693960e-02 4.701471e-04)
14.125        	(-2.307177e-03 1.363508e+01 -1.645781e-02)	(-2.033164e-03 1.361859e+01 -1.691825e-02)	(-2.740133e-04 1.649314e-02 4.604423e-04)
14.15         	(-2.272186e-03 1.361950e+01 -1.675294e-02)	(-1.997770e-03 1.360345e+01 -1.720363e-02)	(-2.744164e-04 1.604641e-02 4.506887e-04)
14.175        	(-2.318922e-03 1.360406e+01 -1.643660e-02)	(-2.043927e-03 1.358846e+01 -1.687871e-02)	(-2.749948e-04 1.559938e-02 4.421106e-04)
14.2          	(-2.222927e-03 1.358863e+01 -1.716569e-02)	(-1.947817e-03 1.357348e+01 -1.759917e-02)	(-2.751100e-04 1.515196e-02 4.334793e-04)
14.225        	(-2.274929e-03 1.357324e+01 -1.669741e-02)	(-1.999500e-03 1.355854e+01 -1.712224e-02)	(-2.754287e-04 1.470460e-02 4.248317e-04)
14.25         	(-2.242883e-03 1.355786e+01 -1.690971e-02)	(-1.967088e-03 1.354360e+01 -1.732592e-02)	(-2.757951e-04 1.425715e-02 4.162133e-04)
14.275        	(-2.269252e-03 1.354264e+01 -1.690318e-02)	(-1.993067e-03 1.352883e+01 -1.731184e-02)	(-2.761846e-04 1.380969e-02 4.086612e-04)
14.3          	(-2.219130e-03 1.352769e+01 -1.714616e-02)	(-1.942731e-03 1.351433e+01 -1.754665e-02)	(-2.763993e-04 1.336286e-02 4.004841e-04)
14.325        	(-2.247228e-03 1.351253e+01 -1.710408e-02)	(-1.970441e-03 1.349962e+01 -1.749685e-02)	(-2.767872e-04 1.291634e-02 3.927677e-04)
14.35         	(-2.196953e-03 1.349773e+01 -1.690586e-02)	(-1.920390e-03 1.348526e+01 -1.728547e-02)	(-2.765637e-04 1.246928e-02 3.796090e-04)
14.375        	(-2.179424e-03 1.348303e+01 -1.696056e-02)	(-1.902779e-03 1.347100e+01 -1.733231e-02)	(-2.766443e-04 1.202272e-02 3.717447e-04)
14.4          	(-2.260470e-03 1.346850e+01 -1.737207e-02)	(-1.983267e-03 1.345692e+01 -1.773582e-02)	(-2.772037e-04 1.157719e-02 3.637420e-04)
14.425        	(-2.145292e-03 1.345427e+01 -1.725160e-02)	(-1.868081e-03 1.344314e+01 -1.760814e-02)	(-2.772114e-04 1.113298e-02 3.565404e-04)
14.45         	(-2.263971e-03 1.343993e+01 -1.735446e-02)	(-1.986267e-03 1.342924e+01 -1.770425e-02)	(-2.777040e-04 1.069002e-02 3.497890e-04)
14.475        	(-2.126634e-03 1.342572e+01 -1.731788e-02)	(-1.848888e-03 1.341547e+01 -1.766068e-02)	(-2.777456e-04 1.024847e-02 3.428064e-04)
14.5          	(-2.238832e-03 1.341180e+01 -1.736405e-02)	(-1.960718e-03 1.340199e+01 -1.769991e-02)	(-2.781139e-04 9.808680e-03 3.358573e-04)
14.525        	(-2.124037e-03 1.339766e+01 -1.746521e-02)	(-1.845883e-03 1.338829e+01 -1.779424e-02)	(-2.781536e-04 9.370252e-03 3.290316e-04)
14.55         	(-2.221071e-03 1.338398e+01 -1.740628e-02)	(-1.942588e-03 1.337505e+01 -1.772883e-02)	(-2.784837e-04 8.933778e-03 3.225488e-04)
14.575        	(-2.107926e-03 1.337036e+01 -1.756200e-02)	(-1.829435e-03 1.336186e+01 -1.787795e-02)	(-2.784903e-04 8.499289e-03 3.159522e-04)
14.6          	(-2.178784e-03 1.335694e+01 -1.742597e-02)	(-1.900136e-03 1.334888e+01 -1.773617e-02)	(-2.786487e-04 8.066804e-03 3.101938e-04)
14.625        	(-2.119852e-03 1.334334e+01 -1.753808e-02)	(-1.841143e-03 1.333570e+01 -1.784257e-02)	(-2.787094e-04 7.636065e-03 3.044881e-04)
14.65         	(-2.134169e-03 1.333019e+01 -1.743160e-02)	(-1.855430e-03 1.332298e+01 -1.773073e-02)	(-2.787399e-04 7.207734e-03 2.991258e-04)
14.675        	(-2.132131e-03 1.331732e+01 -1.755526e-02)	(-1.853272e-03 1.331054e+01 -1.784890e-02)	(-2.788585e-04 6.782279e-03 2.936496e-04)
14.7          	(-2.086802e-03 1.330442e+01 -1.762788e-02)	(-1.808032e-03 1.329806e+01 -1.791589e-02)	(-2.787705e-04 6.359353e-03 2.880088e-04)
14.725        	(-2.159151e-03 1.329144e+01 -1.762339e-02)	(-1.880129e-03 1.328550e+01 -1.790586e-02)	(-2.790224e-04 5.938601e-03 2.824689e-04)
14.75         	(-2.045770e-03 1.327870e+01 -1.758694e-02)	(-1.766905e-03 1.327318e+01 -1.786413e-02)	(-2.788656e-04 5.520128e-03 2.771869e-04)
14.775        	(-2.219015e-03 1.326653e+01 -1.772131e-02)	(-1.939630e-03 1.326142e+01 -1.799378e-02)	(-2.793845e-04 5.104810e-03 2.724716e-04)
14.8          	(-2.012376e-03 1.325416e+01 -1.793837e-02)	(-1.733193e-03 1.324947e+01 -1.820542e-02)	(-2.791832e-04 4.692352e-03 2.670459e-04)
14.825        	(-2.181059e-03 1.324183e+01 -1.762012e-02)	(-1.901643e-03 1.323755e+01 -1.788247e-02)	(-2.794161e-04 4.282543e-03 2.623496e-04)
14.85         	(-2.002447e-03 1.322994e+01 -1.777484e-02)	(-1.723336e-03 1.322606e+01 -1.803267e-02)	(-2.791115e-04 3.875937e-03 2.578261e-04)
14.875        	(-2.172116e-03 1.321808e+01 -1.759900e-02)	(-1.892735e-03 1.321461e+01 -1.785255e-02)	(-2.793814e-04 3.472581e-03 2.535467e-04)
14.9          	(-1.985741e-03 1.320648e+01 -1.769995e-02)	(-1.706683e-03 1.320340e+01 -1.794967e-02)	(-2.790578e-04 3.072567e-03 2.497143e-04)
14.925        	(-2.175352e-03 1.319519e+01 -1.757144e-02)	(-1.895995e-03 1.319251e+01 -1.781752e-02)	(-2.793572e-04 2.676328e-03 2.460723e-04)
14.95         	(-1.981067e-03 1.318390e+01 -1.790205e-02)	(-1.702040e-03 1.318162e+01 -1.814287e-02)	(-2.790272e-04 2.283067e-03 2.408229e-04)
14.975        	(-2.134550e-03 1.317253e+01 -1.755306e-02)	(-1.855408e-03 1.317064e+01 -1.778964e-02)	(-2.791421e-04 1.892091e-03 2.365779e-04)
15            	(-1.968193e-03 1.316162e+01 -1.779973e-02)	(-1.689419e-03 1.316012e+01 -1.803229e-02)	(-2.787745e-04 1.504357e-03 2.325602e-04)
15.025        	(-2.139882e-03 1.315057e+01 -1.743446e-02)	(-1.860899e-03 1.314945e+01 -1.766386e-02)	(-2.789830e-04 1.119793e-03 2.293995e-04)
15.05         	(-1.948940e-03 1.313989e+01 -1.778098e-02)	(-1.670365e-03 1.313915e+01 -1.800681e-02)	(-2.785745e-04 7.387850e-04 2.258267e-04)
15.075        	(-2.076299e-03 1.312940e+01 -1.746004e-02)	(-1.797875e-03 1.312904e+01 -1.768309e-02)	(-2.784245e-04 3.616014e-04 2.230489e-04)
15.1          	(-1.986504e-03 1.311901e+01 -1.768906e-02)	(-1.708327e-03 1.311902e+01 -1.790892e-02)	(-2.781773e-04 -1.188063e-05 2.198564e-04)
15.125        	(-2.079034e-03 1.310878e+01 -1.747626e-02)	(-1.800752e-03 1.310916e+01 -1.769300e-02)	(-2.782827e-04 -3.815046e-04 2.167342e-04)
15.15         	(-1.977211e-03 1.309870e+01 -1.746822e-02)	(-1.699173e-03 1.309945e+01 -1.768226e-02)	(-2.780381e-04 -7.472972e-04 2.140421e-04)
15.175        	(-2.121915e-03 1.308911e+01 -1.741540e-02)	(-1.843625e-03 1.309022e+01 -1.762697e-02)	(-2.782905e-04 -1.108770e-03 2.115647e-04)
15.2          	(-1.926376e-03 1.307917e+01 -1.747364e-02)	(-1.648570e-03 1.308064e+01 -1.768269e-02)	(-2.778064e-04 -1.466583e-03 2.090470e-04)
15.225        	(-2.064723e-03 1.306971e+01 -1.741325e-02)	(-1.787054e-03 1.307153e+01 -1.761987e-02)	(-2.776693e-04 -1.820050e-03 2.066176e-04)
15.25         	(-1.950033e-03 1.306024e+01 -1.746377e-02)	(-1.672693e-03 1.306241e+01 -1.766804e-02)	(-2.773407e-04 -2.169521e-03 2.042650e-04)
15.275        	(-2.039836e-03 1.305116e+01 -1.732483e-02)	(-1.762589e-03 1.305367e+01 -1.752692e-02)	(-2.772469e-04 -2.515005e-03 2.020863e-04)
15.3          	(-1.952155e-03 1.304206e+01 -1.736390e-02)	(-1.675236e-03 1.304491e+01 -1.756410e-02)	(-2.769188e-04 -2.856232e-03 2.001965e-04)
15.325        	(-2.052514e-03 1.303310e+01 -1.714497e-02)	(-1.775579e-03 1.303630e+01 -1.734344e-02)	(-2.769349e-04 -3.193431e-03 1.984664e-04)
15.35         	(-1.924743e-03 1.302451e+01 -1.740461e-02)	(-1.648241e-03 1.302803e+01 -1.760099e-02)	(-2.765022e-04 -3.526126e-03 1.963839e-04)
15.375        	(-2.070461e-03 1.301548e+01 -1.710808e-02)	(-1.793885e-03 1.301933e+01 -1.730338e-02)	(-2.765759e-04 -3.854709e-03 1.953026e-04)
15.4          	(-1.898330e-03 1.300728e+01 -1.724297e-02)	(-1.622271e-03 1.301146e+01 -1.743716e-02)	(-2.760593e-04 -4.178828e-03 1.941970e-04)
15.425        	(-2.063301e-03 1.299895e+01 -1.694561e-02)	(-1.787242e-03 1.300345e+01 -1.713893e-02)	(-2.760586e-04 -4.498452e-03 1.933227e-04)
15.45         	(-1.874814e-03 1.299080e+01 -1.714102e-02)	(-1.599366e-03 1.299561e+01 -1.733327e-02)	(-2.754479e-04 -4.813517e-03 1.922430e-04)
15.475        	(-2.088071e-03 1.298265e+01 -1.707034e-02)	(-1.812497e-03 1.298777e+01 -1.726111e-02)	(-2.755737e-04 -5.123854e-03 1.907761e-04)
15.5          	(-1.859976e-03 1.297504e+01 -1.688368e-02)	(-1.585014e-03 1.298047e+01 -1.707395e-02)	(-2.749615e-04 -5.429464e-03 1.902687e-04)
15.525        	(-2.101248e-03 1.296727e+01 -1.675798e-02)	(-1.826130e-03 1.297300e+01 -1.694776e-02)	(-2.751173e-04 -5.730813e-03 1.897810e-04)
15.55         	(-1.878920e-03 1.296005e+01 -1.668811e-02)	(-1.604277e-03 1.296608e+01 -1.687764e-02)	(-2.746425e-04 -6.027120e-03 1.895287e-04)
15.575        	(-1.963017e-03 1.295266e+01 -1.690857e-02)	(-1.688922e-03 1.295898e+01 -1.709733e-02)	(-2.740956e-04 -6.318766e-03 1.887625e-04)
15.6          	(-1.970420e-03 1.294518e+01 -1.659593e-02)	(-1.696498e-03 1.295179e+01 -1.678467e-02)	(-2.739221e-04 -6.606168e-03 1.887374e-04)
15.625        	(-1.915591e-03 1.293828e+01 -1.656966e-02)	(-1.642147e-03 1.294517e+01 -1.675858e-02)	(-2.734441e-04 -6.888570e-03 1.889211e-04)
15.65         	(-2.016099e-03 1.293086e+01 -1.630082e-02)	(-1.742708e-03 1.293803e+01 -1.649044e-02)	(-2.733914e-04 -7.166860e-03 1.896233e-04)
15.675        	(-1.876014e-03 1.292446e+01 -1.626484e-02)	(-1.603649e-03 1.293190e+01 -1.644947e-02)	(-2.723649e-04 -7.440617e-03 1.846287e-04)
15.7          	(-2.041035e-03 1.291794e+01 -1.607731e-02)	(-1.768850e-03 1.292565e+01 -1.625982e-02)	(-2.721855e-04 -7.710880e-03 1.825156e-04)
15.725        	(-1.824110e-03 1.291108e+01 -1.596401e-02)	(-1.552702e-03 1.291906e+01 -1.614738e-02)	(-2.714083e-04 -7.977486e-03 1.833762e-04)
15.75         	(-2.084990e-03 1.290489e+01 -1.631633e-02)	(-1.813459e-03 1.291313e+01 -1.649987e-02)	(-2.715311e-04 -8.238983e-03 1.835415e-04)
15.775        	(-1.816291e-03 1.289859e+01 -1.560775e-02)	(-1.545479e-03 1.290709e+01 -1.579290e-02)	(-2.708121e-04 -8.495619e-03 1.851553e-04)
15.8          	(-2.023436e-03 1.289271e+01 -1.606793e-02)	(-1.752871e-03 1.290146e+01 -1.625424e-02)	(-2.705655e-04 -8.747122e-03 1.863031e-04)
15.825        	(-1.862715e-03 1.288712e+01 -1.576830e-02)	(-1.592724e-03 1.289611e+01 -1.595604e-02)	(-2.699906e-04 -8.993210e-03 1.877408e-04)
15.85         	(-2.012725e-03 1.288117e+01 -1.570269e-02)	(-1.742903e-03 1.289040e+01 -1.589197e-02)	(-2.698221e-04 -9.234570e-03 1.892815e-04)
15.875        	(-1.868752e-03 1.287509e+01 -1.590443e-02)	(-1.599505e-03 1.288456e+01 -1.609316e-02)	(-2.692470e-04 -9.472134e-03 1.887313e-04)
15.9          	(-1.998563e-03 1.286963e+01 -1.542679e-02)	(-1.729484e-03 1.287933e+01 -1.561730e-02)	(-2.690790e-04 -9.704498e-03 1.905094e-04)
15.925        	(-1.858243e-03 1.286405e+01 -1.540445e-02)	(-1.589821e-03 1.287398e+01 -1.559803e-02)	(-2.684221e-04 -9.931983e-03 1.935836e-04)
15.95         	(-2.021144e-03 1.285877e+01 -1.526793e-02)	(-1.752791e-03 1.286893e+01 -1.546386e-02)	(-2.683527e-04 -1.015415e-02 1.959309e-04)
15.975        	(-1.796741e-03 1.285338e+01 -1.505530e-02)	(-1.529315e-03 1.286375e+01 -1.525324e-02)	(-2.674258e-04 -1.037185e-02 1.979419e-04)
16            	(-2.077392e-03 1.284862e+01 -1.544888e-02)	(-1.809891e-03 1.285921e+01 -1.564916e-02)	(-2.675012e-04 -1.058381e-02 2.002881e-04)
16.025        	(-1.822458e-03 1.284395e+01 -1.459486e-02)	(-1.555576e-03 1.285474e+01 -1.479851e-02)	(-2.668820e-04 -1.079045e-02 2.036570e-04)
16.05         	(-2.023995e-03 1.283893e+01 -1.505872e-02)	(-1.757279e-03 1.284993e+01 -1.526430e-02)	(-2.667158e-04 -1.099232e-02 2.055884e-04)
16.075        	(-1.829266e-03 1.283428e+01 -1.441794e-02)	(-1.563306e-03 1.284547e+01 -1.462705e-02)	(-2.659607e-04 -1.118962e-02 2.091014e-04)
16.1          	(-2.026759e-03 1.282970e+01 -1.486286e-02)	(-1.760974e-03 1.284108e+01 -1.507418e-02)	(-2.657853e-04 -1.138203e-02 2.113271e-04)
16.125        	(-1.836591e-03 1.282518e+01 -1.448731e-02)	(-1.571505e-03 1.283675e+01 -1.470144e-02)	(-2.650860e-04 -1.156958e-02 2.141232e-04)
16.15         	(-2.007774e-03 1.282082e+01 -1.440779e-02)	(-1.742907e-03 1.283258e+01 -1.462494e-02)	(-2.648674e-04 -1.175222e-02 2.171500e-04)
16.175        	(-1.859553e-03 1.281666e+01 -1.426998e-02)	(-1.595318e-03 1.282859e+01 -1.449027e-02)	(-2.642352e-04 -1.192990e-02 2.202888e-04)
16.2          	(-1.951672e-03 1.281272e+01 -1.368781e-02)	(-1.687695e-03 1.282482e+01 -1.391107e-02)	(-2.639777e-04 -1.210270e-02 2.232529e-04)
16.225        	(-1.776731e-03 1.280851e+01 -1.372358e-02)	(-1.513651e-03 1.282078e+01 -1.395091e-02)	(-2.630793e-04 -1.227074e-02 2.273373e-04)
16.25         	(-2.057133e-03 1.280514e+01 -1.402186e-02)	(-1.794162e-03 1.281757e+01 -1.425355e-02)	(-2.629716e-04 -1.243341e-02 2.316872e-04)
16.275        	(-1.818104e-03 1.280111e+01 -1.391663e-02)	(-1.555933e-03 1.281370e+01 -1.415129e-02)	(-2.621714e-04 -1.259189e-02 2.346548e-04)
16.3          	(-2.004989e-03 1.279736e+01 -1.331357e-02)	(-1.742918e-03 1.281011e+01 -1.355095e-02)	(-2.620703e-04 -1.274582e-02 2.373844e-04)
16.325        	(-1.849550e-03 1.279417e+01 -1.328787e-02)	(-1.587974e-03 1.280706e+01 -1.352906e-02)	(-2.615762e-04 -1.289456e-02 2.411877e-04)
16.35         	(-1.960918e-03 1.279080e+01 -1.314588e-02)	(-1.699715e-03 1.280383e+01 -1.339147e-02)	(-2.612024e-04 -1.303852e-02 2.455845e-04)
16.375        	(-1.922305e-03 1.278787e+01 -1.299996e-02)	(-1.661435e-03 1.280105e+01 -1.325004e-02)	(-2.608702e-04 -1.317728e-02 2.500872e-04)
16.4          	(-1.851313e-03 1.278448e+01 -1.287309e-02)	(-1.591302e-03 1.279779e+01 -1.312808e-02)	(-2.600117e-04 -1.331140e-02 2.549884e-04)
16.425        	(-1.910135e-03 1.278083e+01 -1.299459e-02)	(-1.650753e-03 1.279428e+01 -1.325424e-02)	(-2.593815e-04 -1.344154e-02 2.596498e-04)
16.45         	(-1.973250e-03 1.277774e+01 -1.292739e-02)	(-1.714009e-03 1.279131e+01 -1.319106e-02)	(-2.592404e-04 -1.356715e-02 2.636636e-04)
16.475        	(-1.912886e-03 1.277513e+01 -1.269091e-02)	(-1.654063e-03 1.278882e+01 -1.295900e-02)	(-2.588222e-04 -1.368733e-02 2.680916e-04)
16.5          	(-1.962814e-03 1.277288e+01 -1.258792e-02)	(-1.704360e-03 1.278668e+01 -1.286114e-02)	(-2.584536e-04 -1.380178e-02 2.732198e-04)
16.525        	(-1.910119e-03 1.277015e+01 -1.226885e-02)	(-1.652231e-03 1.278406e+01 -1.254858e-02)	(-2.578887e-04 -1.391145e-02 2.797327e-04)
16.55         	(-1.930321e-03 1.276755e+01 -1.234571e-02)	(-1.673006e-03 1.278156e+01 -1.263293e-02)	(-2.573144e-04 -1.401625e-02 2.872212e-04)
16.575        	(-1.923106e-03 1.276478e+01 -1.215420e-02)	(-1.666379e-03 1.277889e+01 -1.245236e-02)	(-2.567268e-04 -1.411619e-02 2.981688e-04)
16.6          	(-1.930978e-03 1.276238e+01 -1.191545e-02)	(-1.674644e-03 1.277659e+01 -1.221166e-02)	(-2.563345e-04 -1.421241e-02 2.962133e-04)
16.625        	(-1.941992e-03 1.276005e+01 -1.179090e-02)	(-1.686067e-03 1.277435e+01 -1.208723e-02)	(-2.559250e-04 -1.430552e-02 2.963252e-04)
16.65         	(-1.902027e-03 1.275783e+01 -1.154344e-02)	(-1.646778e-03 1.277223e+01 -1.184541e-02)	(-2.552498e-04 -1.439453e-02 3.019665e-04)
16.675        	(-2.003094e-03 1.275607e+01 -1.150210e-02)	(-1.747979e-03 1.277055e+01 -1.180208e-02)	(-2.551144e-04 -1.447922e-02 2.999828e-04)
16.7          	(-1.872661e-03 1.275412e+01 -1.147212e-02)	(-1.618135e-03 1.276868e+01 -1.177480e-02)	(-2.545264e-04 -1.456092e-02 3.026799e-04)
16.725        	(-2.006956e-03 1.275210e+01 -1.160820e-02)	(-1.753120e-03 1.276674e+01 -1.191469e-02)	(-2.538363e-04 -1.463883e-02 3.064881e-04)
16.75         	(-1.902134e-03 1.275020e+01 -1.110115e-02)	(-1.648731e-03 1.276491e+01 -1.141383e-02)	(-2.534034e-04 -1.471267e-02 3.126846e-04)
16.775        	(-2.029857e-03 1.274887e+01 -1.125904e-02)	(-1.776462e-03 1.276365e+01 -1.157724e-02)	(-2.533945e-04 -1.478173e-02 3.181956e-04)
16.8          	(-1.858119e-03 1.274663e+01 -1.074913e-02)	(-1.605500e-03 1.276147e+01 -1.107306e-02)	(-2.526189e-04 -1.484729e-02 3.239284e-04)
16.825        	(-2.017324e-03 1.274511e+01 -1.099438e-02)	(-1.765072e-03 1.276002e+01 -1.132339e-02)	(-2.522511e-04 -1.490903e-02 3.290034e-04)
16.85         	(-1.869710e-03 1.274375e+01 -1.042887e-02)	(-1.618219e-03 1.275872e+01 -1.076370e-02)	(-2.514912e-04 -1.496640e-02 3.348272e-04)
16.875        	(-2.065356e-03 1.274200e+01 -1.101824e-02)	(-1.813945e-03 1.275702e+01 -1.135724e-02)	(-2.514111e-04 -1.502003e-02 3.390008e-04)
16.9          	(-1.886030e-03 1.274141e+01 -1.033228e-02)	(-1.635230e-03 1.275648e+01 -1.067637e-02)	(-2.508003e-04 -1.506901e-02 3.440915e-04)
16.925        	(-1.998068e-03 1.273974e+01 -1.041401e-02)	(-1.747751e-03 1.275485e+01 -1.076369e-02)	(-2.503167e-04 -1.511466e-02 3.496798e-04)
16.95         	(-1.905629e-03 1.273890e+01 -1.024091e-02)	(-1.655965e-03 1.275406e+01 -1.059587e-02)	(-2.496639e-04 -1.515668e-02 3.549578e-04)
16.975        	(-1.965051e-03 1.273758e+01 -9.914511e-03)	(-1.715968e-03 1.275278e+01 -1.027560e-02)	(-2.490832e-04 -1.519511e-02 3.610901e-04)
17            	(-1.974413e-03 1.273727e+01 -9.889198e-03)	(-1.725721e-03 1.275250e+01 -1.025597e-02)	(-2.486919e-04 -1.522892e-02 3.667761e-04)
17.025        	(-1.955860e-03 1.273596e+01 -9.974268e-03)	(-1.707676e-03 1.275122e+01 -1.034582e-02)	(-2.481835e-04 -1.525946e-02 3.715537e-04)
17.05         	(-1.960573e-03 1.273512e+01 -9.652895e-03)	(-1.712878e-03 1.275041e+01 -1.002950e-02)	(-2.476944e-04 -1.528701e-02 3.766016e-04)
17.075        	(-2.004645e-03 1.273437e+01 -1.006730e-02)	(-1.757157e-03 1.274968e+01 -1.044641e-02)	(-2.474884e-04 -1.531114e-02 3.791053e-04)
17.1          	(-1.947578e-03 1.273394e+01 -9.221398e-03)	(-1.700722e-03 1.274927e+01 -9.607038e-03)	(-2.468566e-04 -1.533136e-02 3.856401e-04)
17.125        	(-2.022844e-03 1.273325e+01 -9.729076e-03)	(-1.776264e-03 1.274860e+01 -1.012014e-02)	(-2.465794e-04 -1.534817e-02 3.910675e-04)
17.15         	(-1.924744e-03 1.273293e+01 -9.011713e-03)	(-1.678787e-03 1.274829e+01 -9.408686e-03)	(-2.459571e-04 -1.536160e-02 3.969730e-04)
17.175        	(-2.017081e-03 1.273243e+01 -9.302057e-03)	(-1.771535e-03 1.274780e+01 -9.704492e-03)	(-2.455455e-04 -1.537192e-02 4.024349e-04)