# Moment      
# CofR        : (0.000000e+00 0.000000e+00 0.000000e+00)
#
# Time        	(total_x total_y total_z)	(pressure_x pressure_y pressure_z)	(viscous_x viscous_y viscous_z)
0.025         	(4.482504e-02 5.163760e+03 -2.962992e-01)	(4.474713e-02 5.153033e+03 -2.961195e-01)	(7.790541e-05 1.072745e+01 -1.797873e-04)
0.05          	(-1.232640e-01 -1.675135e+03 -1.074916e+00)	(-1.228560e-01 -1.682898e+03 -1.066975e+00)	(-4.079958e-04 7.763350e+00 -7.940922e-03)
0.075         	(3.202725e-02 9.855887e+02 1.419138e+00)	(3.135342e-02 9.802344e+02 1.427768e+00)	(6.738362e-04 5.354283e+00 -8.630281e-03)
0.1           	(-3.802074e-02 -5.978918e+02 -5.196707e-01)	(-3.858336e-02 -6.016058e+02 -5.097083e-01)	(5.626163e-04 3.714037e+00 -9.962334e-03)
0.125         	(1.976152e-02 1.264803e+02 5.019759e-01)	(1.996254e-02 1.236858e+02 5.074925e-01)	(-2.010165e-04 2.794568e+00 -5.516587e-03)
0.15          	(-1.213431e-02 -2.194170e+02 -2.252779e-01)	(-1.183173e-02 -2.216849e+02 -2.258975e-01)	(-3.025750e-04 2.267841e+00 6.196069e-04)
0.175         	(3.359276e-03 -3.551607e+00 1.596073e-01)	(3.688936e-03 -5.509105e+00 1.550436e-01)	(-3.296600e-04 1.957499e+00 4.563635e-03)
0.2           	(-9.042256e-03 -7.389955e+01 -1.214411e-01)	(-8.671188e-03 -7.566384e+01 -1.267661e-01)	(-3.710685e-04 1.764295e+00 5.324969e-03)
0.225         	(-6.271717e-03 -8.452890e+00 5.794895e-03)	(-5.984449e-03 -1.008685e+01 1.119701e-03)	(-2.872677e-04 1.633965e+00 4.675194e-03)
0.25          	(-5.536424e-03 -2.108717e+01 9.571524e-03)	(-5.257173e-03 -2.261937e+01 6.058594e-03)	(-2.792503e-04 1.532196e+00 3.512930e-03)
0.275         	(1.195597e-03 -1.159314e+00 -5.566676e-03)	(1.462953e-03 -2.606081e+00 -8.481045e-03)	(-2.673564e-04 1.446767e+00 2.914369e-03)
0.3           	(-5.640114e-04 -2.472370e+00 2.629560e-02)	(-3.188019e-04 -3.844135e+00 2.348865e-02)	(-2.452095e-04 1.371765e+00 2.806946e-03)
0.325         	(3.424037e-03 3.928115e+00 -4.676196e-03)	(3.626036e-03 2.624534e+00 -7.323300e-03)	(-2.019991e-04 1.303580e+00 2.647104e-03)
0.35          	(4.171710e-03 4.333207e+00 1.685641e-02)	(4.323446e-03 3.092283e+00 1.425955e-02)	(-1.517357e-04 1.240924e+00 2.596859e-03)
0.375         	(5.188766e-03 6.536892e+00 2.495900e-03)	(5.292152e-03 5.353140e+00 7.994448e-05)	(-1.033857e-04 1.183753e+00 2.415955e-03)
0.4           	(6.321680e-03 7.041135e+00 6.905689e-04)	(6.375148e-03 5.910181e+00 -1.533268e-03)	(-5.346892e-05 1.130954e+00 2.223837e-03)
0.425         	(3.100306e-03 7.895847e+00 1.634481e-03)	(3.136896e-03 6.814327e+00 -4.741613e-04)	(-3.659057e-05 1.081520e+00 2.108643e-03)
0.45          	(5.607563e-03 8.266788e+00 9.451807e-03)	(5.627273e-03 7.231317e+00 7.466818e-03)	(-1.970927e-05 1.035471e+00 1.984989e-03)
0.475         	(1.678181e-03 8.669112e+00 -7.737167e-03)	(1.696385e-03 7.676727e+00 -9.552858e-03)	(-1.820423e-05 9.923846e-01 1.815692e-03)
0.5           	(3.882771e-03 8.917907e+00 9.906460e-03)	(3.892802e-03 7.965864e+00 8.223706e-03)	(-1.003081e-05 9.520432e-01 1.682754e-03)
0.525         	(3.380740e-04 9.120241e+00 -9.279932e-03)	(3.533139e-04 8.205970e+00 -1.075584e-02)	(-1.523989e-05 9.142712e-01 1.475903e-03)
0.55          	(1.135004e-03 9.269289e+00 -8.896224e-04)	(1.154035e-03 8.390419e+00 -2.186870e-03)	(-1.903059e-05 8.788707e-01 1.297247e-03)
0.575         	(-1.596270e-04 9.388502e+00 -6.451847e-03)	(-1.359965e-04 8.542895e+00 -7.591396e-03)	(-2.363051e-05 8.456069e-01 1.139549e-03)
0.6           	(8.024216e-04 9.488105e+00 -7.495868e-04)	(8.249693e-04 8.673952e+00 -1.756103e-03)	(-2.254771e-05 8.141533e-01 1.006516e-03)
0.625         	(-9.372612e-04 9.568368e+00 -7.211717e-03)	(-9.076171e-04 8.784060e+00 -8.109005e-03)	(-2.964413e-05 7.843080e-01 8.972873e-04)
0.65          	(-3.634326e-04 9.627146e+00 -4.952823e-03)	(-3.287521e-04 8.871035e+00 -5.766827e-03)	(-3.468044e-05 7.561108e-01 8.140043e-04)
0.675         	(-7.336792e-04 9.668997e+00 -6.171391e-03)	(-6.953516e-04 8.939611e+00 -6.912802e-03)	(-3.832759e-05 7.293860e-01 7.414112e-04)
0.7           	(-1.330551e-03 9.687348e+00 -5.767651e-03)	(-1.283548e-03 8.983349e+00 -6.422843e-03)	(-4.700232e-05 7.039984e-01 6.551919e-04)
0.725         	(-1.050114e-03 9.706323e+00 -6.561960e-03)	(-9.967876e-04 9.026566e+00 -7.163142e-03)	(-5.332631e-05 6.797569e-01 6.011827e-04)
0.75          	(-1.163457e-03 9.714734e+00 -6.018097e-03)	(-1.109375e-03 9.058135e+00 -6.577887e-03)	(-5.408252e-05 6.565995e-01 5.597903e-04)
0.775         	(-1.380397e-03 9.730134e+00 -5.339322e-03)	(-1.324217e-03 9.095648e+00 -5.840046e-03)	(-5.618007e-05 6.344859e-01 5.007234e-04)
0.8           	(-7.591857e-04 9.731076e+00 -7.432472e-03)	(-7.079025e-04 9.117847e+00 -7.896246e-03)	(-5.128316e-05 6.132292e-01 4.637737e-04)
0.825         	(-8.769532e-04 9.729909e+00 -5.386905e-03)	(-8.305728e-04 9.137061e+00 -5.823507e-03)	(-4.638045e-05 5.928486e-01 4.366015e-04)
0.85          	(-3.080216e-04 9.736184e+00 -6.176742e-03)	(-2.691100e-04 9.162876e+00 -6.597881e-03)	(-3.891164e-05 5.733075e-01 4.211393e-04)
0.875         	(-3.588635e-04 9.730735e+00 -4.161952e-03)	(-3.255736e-04 9.176214e+00 -4.573274e-03)	(-3.328988e-05 5.545217e-01 4.113222e-04)
0.9           	(-3.727884e-05 9.724490e+00 -3.344398e-03)	(-8.874402e-06 9.188040e+00 -3.748994e-03)	(-2.840444e-05 5.364496e-01 4.045958e-04)
0.925         	(-4.830050e-05 9.709516e+00 -2.785233e-03)	(-2.413128e-05 9.190441e+00 -3.175800e-03)	(-2.416922e-05 5.190754e-01 3.905672e-04)
0.95          	(2.202796e-04 9.702281e+00 -3.310008e-03)	(2.396259e-04 9.199975e+00 -3.687318e-03)	(-1.934622e-05 5.023059e-01 3.773096e-04)
0.975         	(-1.561297e-05 9.694523e+00 -2.463007e-03)	(7.768334e-07 9.208383e+00 -2.824614e-03)	(-1.638980e-05 4.861399e-01 3.616075e-04)
1             	(3.962708e-05 9.685610e+00 -3.045950e-03)	(5.409275e-05 9.215107e+00 -3.396510e-03)	(-1.446567e-05 4.705028e-01 3.505593e-04)
1.025         	(3.956476e-04 9.677518e+00 -1.522392e-03)	(4.064245e-04 9.222132e+00 -1.867224e-03)	(-1.077688e-05 4.553860e-01 3.448317e-04)
1.05          	(3.364605e-04 9.661998e+00 -2.438167e-03)	(3.439547e-04 9.221299e+00 -2.776017e-03)	(-7.494196e-06 4.406985e-01 3.378499e-04)
1.075         	(5.096761e-04 9.652410e+00 -1.375366e-03)	(5.143065e-04 9.225941e+00 -1.705784e-03)	(-4.630434e-06 4.264695e-01 3.304177e-04)
1.1           	(1.981792e-04 9.636958e+00 -2.285369e-03)	(2.006348e-04 9.224273e+00 -2.607216e-03)	(-2.455584e-06 4.126846e-01 3.218464e-04)
1.125         	(5.640463e-04 9.623593e+00 -1.511126e-03)	(5.635416e-04 9.224272e+00 -1.827155e-03)	(5.047098e-07 3.993213e-01 3.160291e-04)
1.15          	(1.241228e-04 9.609339e+00 -2.778637e-03)	(1.225188e-04 9.222978e+00 -3.089084e-03)	(1.604022e-06 3.863613e-01 3.104465e-04)
1.175         	(2.729976e-04 9.594736e+00 -1.845187e-03)	(2.703276e-04 9.220935e+00 -2.150685e-03)	(2.669953e-06 3.738009e-01 3.054977e-04)
1.2           	(7.892600e-05 9.581023e+00 -2.570357e-03)	(7.527602e-05 9.219406e+00 -2.871242e-03)	(3.649983e-06 3.616167e-01 3.008852e-04)
1.225         	(2.870758e-04 9.568439e+00 -1.861948e-03)	(2.818906e-04 9.218690e+00 -2.156922e-03)	(5.185180e-06 3.497483e-01 2.949740e-04)
1.25          	(-1.610239e-06 9.554840e+00 -2.362855e-03)	(-7.327593e-06 9.216646e+00 -2.653109e-03)	(5.717353e-06 3.381936e-01 2.902537e-04)
1.275         	(1.766475e-04 9.536618e+00 -2.214942e-03)	(1.699712e-04 9.209674e+00 -2.501601e-03)	(6.676260e-06 3.269445e-01 2.866588e-04)
1.3           	(-1.671832e-06 9.525191e+00 -2.333081e-03)	(-8.846330e-06 9.209188e+00 -2.617487e-03)	(7.174498e-06 3.160036e-01 2.844056e-04)
1.325         	(7.990442e-05 9.511489e+00 -1.904909e-03)	(7.214483e-05 9.206161e+00 -2.186867e-03)	(7.759588e-06 3.053283e-01 2.819581e-04)
1.35          	(2.583163e-05 9.494711e+00 -2.317031e-03)	(1.750694e-05 9.199801e+00 -2.596394e-03)	(8.324688e-06 2.949100e-01 2.793631e-04)
1.375         	(1.379429e-04 9.484668e+00 -2.147045e-03)	(1.282783e-04 9.199920e+00 -2.426655e-03)	(9.664626e-06 2.847486e-01 2.796095e-04)
1.4           	(-4.293500e-05 9.470420e+00 -2.321136e-03)	(-5.305771e-05 9.195596e+00 -2.601637e-03)	(1.012271e-05 2.748241e-01 2.805016e-04)
1.425         	(1.742127e-04 9.455489e+00 -2.109168e-03)	(1.629565e-04 9.190354e+00 -2.388701e-03)	(1.125619e-05 2.651348e-01 2.795329e-04)
1.45          	(-1.571357e-04 9.444843e+00 -2.453090e-03)	(-1.683579e-04 9.189162e+00 -2.730020e-03)	(1.122218e-05 2.556804e-01 2.769294e-04)
1.475         	(6.565786e-05 9.431608e+00 -1.990466e-03)	(5.400437e-05 9.185163e+00 -2.264827e-03)	(1.165349e-05 2.464442e-01 2.743610e-04)
1.5           	(-1.412108e-04 9.416513e+00 -2.474891e-03)	(-1.528839e-04 9.179102e+00 -2.745359e-03)	(1.167314e-05 2.374117e-01 2.704680e-04)
1.525         	(8.818990e-05 9.404803e+00 -2.029436e-03)	(7.582150e-05 9.176247e+00 -2.296543e-03)	(1.236839e-05 2.285560e-01 2.671062e-04)
1.55          	(-2.236604e-04 9.389447e+00 -2.641867e-03)	(-2.357699e-04 9.169573e+00 -2.904489e-03)	(1.210956e-05 2.198739e-01 2.626223e-04)
1.575         	(3.283047e-05 9.380762e+00 -2.303620e-03)	(2.027990e-05 9.169382e+00 -2.564832e-03)	(1.255057e-05 2.113797e-01 2.612114e-04)
1.6           	(-2.904605e-04 9.366209e+00 -2.380365e-03)	(-3.025120e-04 9.163157e+00 -2.638774e-03)	(1.205151e-05 2.030528e-01 2.584088e-04)
1.625         	(-8.998645e-05 9.355819e+00 -2.415737e-03)	(-1.020793e-04 9.160934e+00 -2.669105e-03)	(1.209287e-05 1.948851e-01 2.533674e-04)
1.65          	(-3.256035e-04 9.340396e+00 -2.560779e-03)	(-3.371623e-04 9.153559e+00 -2.807622e-03)	(1.155884e-05 1.868367e-01 2.468434e-04)
1.675         	(5.381037e-04 9.323058e+00 -4.091590e-04)	(5.235867e-04 9.144108e+00 -6.749919e-04)	(1.451701e-05 1.789504e-01 2.658329e-04)
1.7           	(1.532277e-04 9.312521e+00 -1.406614e-03)	(1.373970e-04 9.141295e+00 -1.698170e-03)	(1.583070e-05 1.712254e-01 2.915567e-04)
1.725         	(2.500720e-04 9.300048e+00 -1.131603e-03)	(2.340948e-04 9.136405e+00 -1.441023e-03)	(1.597714e-05 1.636430e-01 3.094195e-04)
1.75          	(4.800479e-05 9.288472e+00 -1.672428e-03)	(3.258525e-05 9.132270e+00 -1.993865e-03)	(1.541954e-05 1.562014e-01 3.214370e-04)
1.775         	(1.894506e-04 9.273676e+00 -1.305068e-03)	(1.739706e-04 9.124785e+00 -1.635797e-03)	(1.547996e-05 1.488908e-01 3.307282e-04)
1.8           	(-6.476959e-05 9.262225e+00 -1.663737e-03)	(-7.977287e-05 9.120512e+00 -2.000789e-03)	(1.500328e-05 1.417128e-01 3.370518e-04)
1.825         	(1.055116e-04 9.248764e+00 -1.511757e-03)	(9.039697e-05 9.114103e+00 -1.852668e-03)	(1.511468e-05 1.346617e-01 3.409112e-04)
1.85          	(-9.619976e-05 9.237319e+00 -1.916134e-03)	(-1.109821e-04 9.109598e+00 -2.259544e-03)	(1.478236e-05 1.277207e-01 3.434102e-04)
1.875         	(1.272171e-05 9.226394e+00 -1.493332e-03)	(-2.031140e-06 9.105506e+00 -1.838897e-03)	(1.475285e-05 1.208879e-01 3.455642e-04)
1.9           	(-1.702075e-04 9.216201e+00 -1.833159e-03)	(-1.843399e-04 9.102034e+00 -2.178161e-03)	(1.413245e-05 1.141676e-01 3.450028e-04)
1.925         	(2.781718e-05 9.202518e+00 -1.519355e-03)	(1.337836e-05 9.094965e+00 -1.866997e-03)	(1.443882e-05 1.075529e-01 3.476426e-04)
1.95          	(-2.015126e-04 9.190189e+00 -1.749173e-03)	(-2.155193e-04 9.089151e+00 -2.100041e-03)	(1.400668e-05 1.010381e-01 3.508684e-04)
1.975         	(1.352498e-05 9.178265e+00 -1.408302e-03)	(-6.334289e-07 9.083670e+00 -1.760600e-03)	(1.415841e-05 9.459541e-02 3.522983e-04)
2             	(-1.677057e-04 9.165140e+00 -1.632048e-03)	(-1.815988e-04 9.076896e+00 -1.987854e-03)	(1.389301e-05 8.824380e-02 3.558051e-04)
2.025         	(2.136092e-05 9.151933e+00 -1.225570e-03)	(7.171221e-06 9.069932e+00 -1.586776e-03)	(1.418969e-05 8.200143e-02 3.612061e-04)
2.05          	(-8.551665e-04 9.139604e+00 -3.478057e-03)	(-8.665495e-04 9.063757e+00 -3.818275e-03)	(1.138304e-05 7.584707e-02 3.402180e-04)
2.075         	(-3.704711e-04 9.127069e+00 -2.027638e-03)	(-3.811021e-04 9.057285e+00 -2.346295e-03)	(1.063099e-05 6.978344e-02 3.186569e-04)
2.1           	(-4.790169e-04 9.115254e+00 -2.602119e-03)	(-4.898593e-04 9.051444e+00 -2.909779e-03)	(1.084238e-05 6.381091e-02 3.076599e-04)
2.125         	(-2.828457e-04 9.101384e+00 -2.241695e-03)	(-2.944062e-04 9.043462e+00 -2.542561e-03)	(1.156043e-05 5.792146e-02 3.008655e-04)
2.15          	(-4.761655e-04 9.091745e+00 -2.587090e-03)	(-4.876863e-04 9.039626e+00 -2.882796e-03)	(1.152074e-05 5.211984e-02 2.957062e-04)
2.175         	(1.472184e-04 9.075736e+00 3.717681e-04)	(1.335431e-04 9.029343e+00 6.066295e-05)	(1.367534e-05 4.639277e-02 3.111052e-04)
2.2           	(-3.772208e-04 9.062734e+00 4.349476e-04)	(-3.907644e-04 9.021998e+00 1.064941e-04)	(1.354366e-05 4.073633e-02 3.284534e-04)
2.225         	(-2.116331e-04 9.049519e+00 1.711840e-03)	(-2.242872e-04 9.014364e+00 1.372017e-03)	(1.265409e-05 3.515495e-02 3.398237e-04)
2.25          	(-9.815990e-05 9.037512e+00 -3.678551e-03)	(-1.106157e-04 9.007862e+00 -4.017023e-03)	(1.245581e-05 2.965001e-02 3.384725e-04)
2.275         	(-5.034653e-04 9.027695e+00 -3.635352e-03)	(-5.149702e-04 9.003482e+00 -3.962995e-03)	(1.150483e-05 2.421243e-02 3.276423e-04)
2.3           	(-3.145898e-04 9.014352e+00 -3.489472e-03)	(-3.265463e-04 8.995510e+00 -3.804315e-03)	(1.195651e-05 1.884208e-02 3.148428e-04)
2.325         	(-1.242374e-04 9.001739e+00 -7.912608e-03)	(-1.374361e-04 8.988200e+00 -8.208624e-03)	(1.319873e-05 1.353850e-02 2.960158e-04)
2.35          	(-9.832520e-05 8.989064e+00 -4.895196e-03)	(-1.131416e-04 8.980775e+00 -5.186185e-03)	(1.481637e-05 8.288821e-03 2.909895e-04)
2.375         	(-1.814967e-04 8.975097e+00 -4.385324e-03)	(-1.975735e-04 8.971992e+00 -4.677525e-03)	(1.607683e-05 3.104465e-03 2.922004e-04)
2.4           	(1.433909e-04 8.959981e+00 -2.815189e-03)	(1.255533e-04 8.961991e+00 -3.120232e-03)	(1.783766e-05 -2.010766e-03 3.050430e-04)
2.425         	(2.612823e-05 8.947415e+00 -3.042858e-03)	(7.634002e-06 8.954473e+00 -3.361669e-03)	(1.849423e-05 -7.058198e-03 3.188108e-04)
2.45          	(5.195073e-05 8.933166e+00 -2.541121e-03)	(3.350252e-05 8.945210e+00 -2.867248e-03)	(1.844821e-05 -1.204415e-02 3.261270e-04)
2.475         	(-4.686207e-05 8.920479e+00 -2.590363e-03)	(-6.487891e-05 8.937450e+00 -2.920515e-03)	(1.801684e-05 -1.697059e-02 3.301517e-04)
2.5           	(3.640511e-05 8.905539e+00 -2.322475e-03)	(1.846146e-05 8.927380e+00 -2.656309e-03)	(1.794365e-05 -2.184127e-02 3.338338e-04)
2.525         	(-9.406501e-05 8.893444e+00 -2.416037e-03)	(-1.116437e-04 8.920093e+00 -2.751718e-03)	(1.757864e-05 -2.664876e-02 3.356814e-04)
2.55          	(3.973725e-05 8.879556e+00 -2.211424e-03)	(2.207686e-05 8.910960e+00 -2.547927e-03)	(1.766039e-05 -3.140413e-02 3.365032e-04)
2.575         	(-1.466456e-04 8.866113e+00 -2.351156e-03)	(-1.638881e-04 8.902221e+00 -2.687904e-03)	(1.724251e-05 -3.610861e-02 3.367474e-04)
2.6           	(7.416101e-05 8.850478e+00 -2.120903e-03)	(5.663775e-05 8.891239e+00 -2.458363e-03)	(1.752326e-05 -4.076069e-02 3.374603e-04)
2.625         	(-1.684818e-04 8.837118e+00 -2.332644e-03)	(-1.855211e-04 8.882479e+00 -2.669717e-03)	(1.703930e-05 -4.536140e-02 3.370728e-04)
2.65          	(6.529402e-05 8.822402e+00 -1.966051e-03)	(4.806057e-05 8.872316e+00 -2.303261e-03)	(1.723346e-05 -4.991426e-02 3.372106e-04)
2.675         	(-1.470223e-04 8.807266e+00 -2.256152e-03)	(-1.638840e-04 8.861686e+00 -2.592701e-03)	(1.686176e-05 -5.442024e-02 3.365493e-04)
2.7           	(4.812336e-05 8.795179e+00 -1.972015e-03)	(3.097072e-05 8.854056e+00 -2.308342e-03)	(1.715265e-05 -5.887665e-02 3.363274e-04)
2.725         	(-1.555814e-04 8.783610e+00 -2.141818e-03)	(-1.723491e-04 8.846905e+00 -2.477620e-03)	(1.676765e-05 -6.329479e-02 3.358022e-04)
2.75          	(4.238670e-05 8.767255e+00 -1.894461e-03)	(2.537551e-05 8.834925e+00 -2.229238e-03)	(1.701118e-05 -6.767011e-02 3.347768e-04)
2.775         	(-3.626990e-04 8.756421e+00 -2.378121e-03)	(-3.787174e-04 8.828420e+00 -2.704304e-03)	(1.601844e-05 -7.199813e-02 3.261829e-04)
2.8           	(-1.135611e-04 8.742822e+00 -1.996543e-03)	(-1.295447e-04 8.819105e+00 -2.314043e-03)	(1.598360e-05 -7.628385e-02 3.175000e-04)
2.825         	(-3.100686e-04 8.727811e+00 -2.333587e-03)	(-3.257883e-04 8.808340e+00 -2.644520e-03)	(1.571965e-05 -8.052821e-02 3.109322e-04)
2.85          	(-6.865327e-05 8.714362e+00 -1.967052e-03)	(-8.489376e-05 8.799089e+00 -2.272858e-03)	(1.624050e-05 -8.472686e-02 3.058063e-04)
2.875         	(-2.820135e-04 8.699651e+00 -2.264285e-03)	(-2.981803e-04 8.788533e+00 -2.565202e-03)	(1.616680e-05 -8.888215e-02 3.009171e-04)
2.9           	(-7.572425e-05 8.683925e+00 -1.878082e-03)	(-9.223096e-05 8.776921e+00 -2.175528e-03)	(1.650671e-05 -9.299631e-02 2.974461e-04)
2.925         	(-7.003390e-05 8.666149e+00 -1.941556e-03)	(-8.687900e-05 8.763213e+00 -2.240850e-03)	(1.684511e-05 -9.706409e-02 2.992941e-04)
2.95          	(1.031384e-04 8.651759e+00 -1.707652e-03)	(8.557376e-05 8.752848e+00 -2.009232e-03)	(1.756468e-05 -1.010888e-01 3.015795e-04)
2.975         	(-1.199946e-04 8.636951e+00 -1.937813e-03)	(-1.373509e-04 8.742026e+00 -2.240122e-03)	(1.735631e-05 -1.050748e-01 3.023096e-04)
3             	(4.627721e-05 8.623318e+00 -1.667434e-03)	(2.885526e-05 8.732336e+00 -1.968864e-03)	(1.742195e-05 -1.090174e-01 3.014297e-04)
3.025         	(-1.312478e-04 8.608403e+00 -1.915058e-03)	(-1.483209e-04 8.721326e+00 -2.214812e-03)	(1.707319e-05 -1.129223e-01 2.997539e-04)
3.05          	(1.032037e-04 8.593894e+00 -1.488827e-03)	(8.563610e-05 8.710683e+00 -1.787490e-03)	(1.756760e-05 -1.167890e-01 2.986636e-04)
3.075         	(-1.480871e-04 8.578569e+00 -1.845153e-03)	(-1.653382e-04 8.699186e+00 -2.141216e-03)	(1.725110e-05 -1.206170e-01 2.960630e-04)
3.1           	(7.586759e-05 8.563274e+00 -1.532981e-03)	(5.836014e-05 8.687679e+00 -1.826942e-03)	(1.750745e-05 -1.244053e-01 2.939614e-04)
3.125         	(-1.236708e-04 8.548804e+00 -1.801681e-03)	(-1.409534e-04 8.676964e+00 -2.093475e-03)	(1.728262e-05 -1.281600e-01 2.917939e-04)
3.15          	(7.451786e-05 8.533901e+00 -1.558118e-03)	(5.689876e-05 8.665781e+00 -1.847417e-03)	(1.761910e-05 -1.318807e-01 2.892995e-04)
3.175         	(-1.473666e-04 8.518120e+00 -1.727677e-03)	(-1.645563e-04 8.653684e+00 -2.013629e-03)	(1.718965e-05 -1.355639e-01 2.859519e-04)
3.2           	(1.223070e-04 8.502750e+00 -1.360682e-03)	(1.047166e-04 8.641957e+00 -1.645823e-03)	(1.759037e-05 -1.392068e-01 2.851404e-04)
3.225         	(-1.444395e-04 8.488333e+00 -1.791043e-03)	(-1.617126e-04 8.631142e+00 -2.072083e-03)	(1.727303e-05 -1.428082e-01 2.810395e-04)
3.25          	(9.928799e-05 8.474144e+00 -1.457757e-03)	(8.161787e-05 8.620516e+00 -1.734556e-03)	(1.767012e-05 -1.463713e-01 2.767987e-04)
3.275         	(-1.049848e-04 8.459933e+00 -1.641321e-03)	(-1.225462e-04 8.609831e+00 -1.914534e-03)	(1.756136e-05 -1.498979e-01 2.732122e-04)
3.3           	(7.262042e-05 8.443100e+00 -1.410444e-03)	(5.487168e-05 8.596489e+00 -1.679797e-03)	(1.774874e-05 -1.533892e-01 2.693530e-04)
3.325         	(-1.004779e-04 8.428895e+00 -1.521266e-03)	(-1.178831e-04 8.585734e+00 -1.786687e-03)	(1.740511e-05 -1.568389e-01 2.654218e-04)
3.35          	(9.687499e-05 8.412563e+00 -1.413823e-03)	(7.917553e-05 8.572816e+00 -1.675192e-03)	(1.769946e-05 -1.602532e-01 2.613696e-04)
3.375         	(-9.547362e-05 8.397883e+00 -1.567663e-03)	(-1.128215e-04 8.561518e+00 -1.825889e-03)	(1.734791e-05 -1.636346e-01 2.582259e-04)
3.4           	(1.021896e-04 8.382669e+00 -1.412049e-03)	(8.450504e-05 8.549652e+00 -1.666621e-03)	(1.768456e-05 -1.669832e-01 2.545726e-04)
3.425         	(-8.056629e-05 8.368071e+00 -1.503383e-03)	(-9.800027e-05 8.538366e+00 -1.753389e-03)	(1.743398e-05 -1.702953e-01 2.500061e-04)
3.45          	(7.683810e-05 8.351527e+00 -1.407325e-03)	(5.932126e-05 8.525099e+00 -1.652693e-03)	(1.751685e-05 -1.735724e-01 2.453680e-04)
3.475         	(-4.779035e-05 8.335793e+00 -1.429761e-03)	(-6.515776e-05 8.512605e+00 -1.670397e-03)	(1.736741e-05 -1.768126e-01 2.406367e-04)
3.5           	(1.062480e-04 8.321691e+00 -1.400314e-03)	(8.861493e-05 8.501706e+00 -1.636391e-03)	(1.763303e-05 -1.800150e-01 2.360767e-04)
3.525         	(-7.019717e-05 8.307763e+00 -1.381760e-03)	(-8.747003e-05 8.490946e+00 -1.613388e-03)	(1.727286e-05 -1.831831e-01 2.316283e-04)
3.55          	(1.450535e-04 8.292079e+00 -1.287420e-03)	(1.274036e-04 8.478401e+00 -1.515478e-03)	(1.764991e-05 -1.863220e-01 2.280581e-04)
3.575         	(-5.945383e-05 8.278220e+00 -1.368204e-03)	(-7.681159e-05 8.467645e+00 -1.591184e-03)	(1.735776e-05 -1.894254e-01 2.229801e-04)
3.6           	(1.078026e-04 8.261437e+00 -1.245357e-03)	(9.036148e-05 8.453932e+00 -1.463570e-03)	(1.744109e-05 -1.924941e-01 2.182127e-04)
3.625         	(-1.946775e-05 8.246591e+00 -1.404175e-03)	(-3.675526e-05 8.442116e+00 -1.617569e-03)	(1.728751e-05 -1.955254e-01 2.133935e-04)
3.65          	(1.289500e-04 8.232144e+00 -1.146477e-03)	(1.113759e-04 8.430664e+00 -1.355291e-03)	(1.757404e-05 -1.985204e-01 2.088135e-04)
3.675         	(-8.274778e-06 8.216361e+00 -1.461112e-03)	(-2.564405e-05 8.417842e+00 -1.664762e-03)	(1.736927e-05 -2.014808e-01 2.036505e-04)
3.7           	(1.032281e-04 8.201502e+00 -1.337491e-03)	(8.587381e-05 8.405906e+00 -1.536066e-03)	(1.735429e-05 -2.044042e-01 1.985755e-04)
3.725         	(1.990905e-05 8.186216e+00 -1.221359e-03)	(2.699805e-06 8.393507e+00 -1.415068e-03)	(1.720925e-05 -2.072910e-01 1.937088e-04)
3.75          	(1.017968e-04 8.171748e+00 -1.275357e-03)	(8.451827e-05 8.381889e+00 -1.463558e-03)	(1.727858e-05 -2.101412e-01 1.882001e-04)
3.775         	(4.714470e-05 8.158618e+00 -1.135720e-03)	(2.992460e-05 8.371572e+00 -1.321595e-03)	(1.722010e-05 -2.129540e-01 1.858749e-04)
3.8           	(1.238011e-04 8.144267e+00 -1.116925e-03)	(1.064660e-04 8.359999e+00 -1.299254e-03)	(1.733506e-05 -2.157326e-01 1.823289e-04)
3.825         	(4.122805e-05 8.130119e+00 -1.236847e-03)	(2.402443e-05 8.348595e+00 -1.413456e-03)	(1.720362e-05 -2.184766e-01 1.766086e-04)
3.85          	(1.246338e-04 8.115139e+00 -1.126307e-03)	(1.075032e-04 8.336324e+00 -1.297905e-03)	(1.713066e-05 -2.211853e-01 1.715977e-04)
3.875         	(6.128149e-05 8.101086e+00 -1.282161e-03)	(4.429437e-05 8.324943e+00 -1.448828e-03)	(1.698712e-05 -2.238572e-01 1.666667e-04)
3.9           	(1.309637e-04 8.086692e+00 -1.089573e-03)	(1.138659e-04 8.313187e+00 -1.251735e-03)	(1.709781e-05 -2.264951e-01 1.621620e-04)
3.925         	(5.664918e-05 8.073459e+00 -1.210451e-03)	(3.975490e-05 8.302556e+00 -1.367953e-03)	(1.689428e-05 -2.290978e-01 1.575023e-04)
3.95          	(1.558789e-04 8.059581e+00 -1.052335e-03)	(1.388710e-04 8.291246e+00 -1.206276e-03)	(1.700798e-05 -2.316653e-01 1.539406e-04)
3.975         	(-2.974087e-04 8.043487e+00 4.834036e-03)	(-3.139171e-04 8.277690e+00 4.665701e-03)	(1.650839e-05 -2.342031e-01 1.683347e-04)
4             	(-2.065483e-04 8.028731e+00 3.390036e-03)	(-2.229811e-04 8.265436e+00 3.204091e-03)	(1.643281e-05 -2.367045e-01 1.859453e-04)
4.025         	(-2.645023e-04 8.016671e+00 3.146787e-03)	(-2.807966e-04 8.255838e+00 2.946287e-03)	(1.629429e-05 -2.391662e-01 2.005003e-04)
4.05          	(-2.132198e-04 8.005160e+00 2.669275e-03)	(-2.293308e-04 8.246752e+00 2.456151e-03)	(1.611099e-05 -2.415920e-01 2.131245e-04)
4.075         	(-2.819886e-04 7.990343e+00 2.506477e-03)	(-2.978222e-04 8.234327e+00 2.284537e-03)	(1.583358e-05 -2.439847e-01 2.219403e-04)
4.1           	(-2.569641e-04 7.977921e+00 2.117694e-03)	(-2.724438e-04 8.224260e+00 1.887383e-03)	(1.547966e-05 -2.463394e-01 2.303110e-04)
4.125         	(-2.753912e-04 7.964820e+00 1.935197e-03)	(-2.907187e-04 8.213477e+00 1.698714e-03)	(1.532741e-05 -2.486566e-01 2.364826e-04)
4.15          	(-2.573600e-04 7.952053e+00 1.955579e-03)	(-2.727625e-04 8.202990e+00 1.713312e-03)	(1.540249e-05 -2.509371e-01 2.422670e-04)
4.175         	(-2.849716e-04 7.939424e+00 1.805979e-03)	(-3.002186e-04 8.192608e+00 1.555587e-03)	(1.524691e-05 -2.531840e-01 2.503929e-04)
4.2           	(-2.786313e-04 7.927404e+00 1.920623e-03)	(-2.938979e-04 8.182800e+00 1.663848e-03)	(1.526654e-05 -2.553960e-01 2.567755e-04)
4.225         	(-3.098910e-04 7.914536e+00 1.879472e-03)	(-3.251184e-04 8.172110e+00 1.617199e-03)	(1.522732e-05 -2.575743e-01 2.622730e-04)
4.25          	(-2.934819e-04 7.902211e+00 1.854968e-03)	(-3.088044e-04 8.161927e+00 1.587156e-03)	(1.532250e-05 -2.597153e-01 2.678112e-04)
4.275         	(-3.266641e-04 7.890408e+00 1.886664e-03)	(-3.420033e-04 8.152226e+00 1.613135e-03)	(1.533921e-05 -2.618182e-01 2.735293e-04)
4.3           	(-3.135853e-04 7.879052e+00 1.857831e-03)	(-3.289353e-04 8.142936e+00 1.578095e-03)	(1.534997e-05 -2.638833e-01 2.797358e-04)
4.325         	(-3.586041e-04 7.867600e+00 1.978802e-03)	(-3.738634e-04 8.133512e+00 1.693955e-03)	(1.525926e-05 -2.659119e-01 2.848464e-04)
4.35          	(-3.250704e-04 7.856820e+00 1.953263e-03)	(-3.403421e-04 8.124724e+00 1.664191e-03)	(1.527172e-05 -2.679039e-01 2.890722e-04)
4.375         	(-3.794427e-04 7.845473e+00 1.912658e-03)	(-3.945735e-04 8.115335e+00 1.618653e-03)	(1.513080e-05 -2.698619e-01 2.940049e-04)
4.4           	(-3.439247e-04 7.834906e+00 2.107038e-03)	(-3.590739e-04 8.106691e+00 1.808302e-03)	(1.514922e-05 -2.717852e-01 2.987369e-04)
4.425         	(-4.136032e-04 7.823794e+00 2.002240e-03)	(-4.284719e-04 8.097465e+00 1.699660e-03)	(1.486872e-05 -2.736714e-01 3.025802e-04)
4.45          	(-3.496757e-04 7.813030e+00 2.103618e-03)	(-3.645609e-04 8.088549e+00 1.797193e-03)	(1.488525e-05 -2.755199e-01 3.064251e-04)
4.475         	(-4.395327e-04 7.803477e+00 2.004093e-03)	(-4.541494e-04 8.080809e+00 1.693885e-03)	(1.461671e-05 -2.773317e-01 3.102082e-04)
4.5           	(-3.647032e-04 7.793400e+00 2.257531e-03)	(-3.793043e-04 8.072507e+00 1.943543e-03)	(1.460115e-05 -2.791068e-01 3.139883e-04)
4.525         	(-4.667564e-04 7.782937e+00 2.040580e-03)	(-4.809497e-04 8.063783e+00 1.724062e-03)	(1.419332e-05 -2.808455e-01 3.165172e-04)
4.55          	(-3.572092e-04 7.774331e+00 2.281720e-03)	(-3.713934e-04 8.056877e+00 1.962283e-03)	(1.418423e-05 -2.825467e-01 3.194366e-04)
4.575         	(-5.141175e-04 7.764580e+00 2.236586e-03)	(-5.276728e-04 8.048791e+00 1.914779e-03)	(1.355529e-05 -2.842113e-01 3.218071e-04)
4.6           	(-3.621992e-04 7.757607e+00 2.297330e-03)	(-3.757806e-04 8.043444e+00 1.973425e-03)	(1.358131e-05 -2.858369e-01 3.239050e-04)
4.625         	(-5.460439e-04 7.748137e+00 2.241990e-03)	(-5.590063e-04 8.035567e+00 1.916791e-03)	(1.296238e-05 -2.874298e-01 3.251987e-04)
4.65          	(-3.795956e-04 7.739491e+00 2.392497e-03)	(-3.923670e-04 8.028478e+00 2.066068e-03)	(1.277142e-05 -2.889873e-01 3.264286e-04)
4.675         	(-5.414305e-04 7.731959e+00 2.217648e-03)	(-5.536322e-04 8.022465e+00 1.891062e-03)	(1.220172e-05 -2.905067e-01 3.265859e-04)
4.7           	(-4.002051e-04 7.724442e+00 2.410498e-03)	(-4.120229e-04 8.016431e+00 2.083966e-03)	(1.181781e-05 -2.919897e-01 3.265325e-04)
4.725         	(-5.663326e-04 7.716436e+00 2.211334e-03)	(-5.773118e-04 8.009873e+00 1.886164e-03)	(1.097921e-05 -2.934368e-01 3.251701e-04)
4.75          	(-4.087324e-04 7.710384e+00 2.385196e-03)	(-4.197202e-04 8.005232e+00 2.061517e-03)	(1.098774e-05 -2.948472e-01 3.236791e-04)
4.775         	(-5.719055e-04 7.703640e+00 2.264099e-03)	(-5.820426e-04 7.999864e+00 1.941827e-03)	(1.013712e-05 -2.962246e-01 3.222724e-04)
4.8           	(-4.115295e-04 7.695846e+00 2.408027e-03)	(-4.212352e-04 7.993418e+00 2.086398e-03)	(9.705712e-06 -2.975720e-01 3.216290e-04)
4.825         	(-6.021731e-04 7.690869e+00 2.158592e-03)	(-6.109436e-04 7.989749e+00 1.838935e-03)	(8.770514e-06 -2.988804e-01 3.196570e-04)
4.85          	(-4.252652e-04 7.685562e+00 2.496820e-03)	(-4.336183e-04 7.985728e+00 2.177615e-03)	(8.353022e-06 -3.001660e-01 3.192050e-04)
4.875         	(-5.932575e-04 7.679184e+00 2.217526e-03)	(-6.006488e-04 7.980603e+00 1.902539e-03)	(7.391285e-06 -3.014187e-01 3.149875e-04)
4.9           	(-4.287359e-04 7.674723e+00 2.305260e-03)	(-4.356226e-04 7.977354e+00 1.995466e-03)	(6.886620e-06 -3.026314e-01 3.097942e-04)
4.925         	(-6.012490e-04 7.669657e+00 2.130388e-03)	(-6.071079e-04 7.973463e+00 1.826023e-03)	(5.858942e-06 -3.038061e-01 3.043649e-04)
4.95          	(-4.365411e-04 7.665270e+00 2.344310e-03)	(-4.418204e-04 7.970215e+00 2.045121e-03)	(5.279289e-06 -3.049450e-01 2.991886e-04)
4.975         	(-5.986200e-04 7.661098e+00 1.743399e-03)	(-6.027066e-04 7.967146e+00 1.450406e-03)	(4.086572e-06 -3.060474e-01 2.929934e-04)
5             	(-4.332319e-04 7.658027e+00 2.301252e-03)	(-4.365175e-04 7.965137e+00 2.015446e-03)	(3.285550e-06 -3.071097e-01 2.858064e-04)
5.025         	(-5.978623e-04 7.654636e+00 1.808119e-03)	(-5.999510e-04 7.962770e+00 1.530065e-03)	(2.088765e-06 -3.081338e-01 2.780540e-04)
5.05          	(-4.271475e-04 7.651480e+00 2.120690e-03)	(-4.284384e-04 7.960599e+00 1.850387e-03)	(1.290963e-06 -3.091193e-01 2.703034e-04)
5.075         	(-6.067560e-04 7.649378e+00 1.792028e-03)	(-6.069243e-04 7.959443e+00 1.529434e-03)	(1.682844e-07 -3.100645e-01 2.625948e-04)
5.1           	(-4.159523e-04 7.647990e+00 1.892076e-03)	(-4.153913e-04 7.958962e+00 1.636826e-03)	(-5.609445e-07 -3.109719e-01 2.552497e-04)
5.125         	(-6.006576e-04 7.646873e+00 1.563890e-03)	(-5.986897e-04 7.958718e+00 1.317791e-03)	(-1.967862e-06 -3.118448e-01 2.460998e-04)
5.15          	(-4.066257e-04 7.646104e+00 1.737498e-03)	(-4.036906e-04 7.958789e+00 1.498675e-03)	(-2.935088e-06 -3.126854e-01 2.388235e-04)
5.175         	(-5.816913e-04 7.644049e+00 1.410160e-03)	(-5.772570e-04 7.957534e+00 1.181825e-03)	(-4.434349e-06 -3.134850e-01 2.283355e-04)
5.2           	(-4.285937e-04 7.643413e+00 1.673494e-03)	(-4.232388e-04 7.957663e+00 1.454179e-03)	(-5.354892e-06 -3.142496e-01 2.193143e-04)
5.225         	(-5.573601e-04 7.644371e+00 8.317722e-04)	(-5.505758e-04 7.959365e+00 6.198589e-04)	(-6.784334e-06 -3.149941e-01 2.119133e-04)
5.25          	(-3.892623e-04 7.644745e+00 1.244597e-03)	(-3.813859e-04 7.960457e+00 1.040173e-03)	(-7.876343e-06 -3.157129e-01 2.044236e-04)