# Moment      
# CofR        : (0.000000e+00 0.000000e+00 0.000000e+00)
#
# Time        	(total_x total_y total_z)	(pressure_x pressure_y pressure_z)	(viscous_x viscous_y viscous_z)
120.025       	(-2.299305e-03 9.457285e+00 6.859534e-03)	(-2.601807e-03 9.462770e+00 8.073746e-03)	(3.025025e-04 -5.485383e-03 -1.214212e-03)
120.05        	(-2.224634e-03 9.457127e+00 7.519498e-03)	(-2.524418e-03 9.462612e+00 8.730628e-03)	(2.997845e-04 -5.485419e-03 -1.211131e-03)
120.075       	(-2.347564e-03 9.457165e+00 7.108399e-03)	(-2.644307e-03 9.462650e+00 8.315469e-03)	(2.967427e-04 -5.485395e-03 -1.207070e-03)
120.1         	(-2.320218e-03 9.457220e+00 7.050653e-03)	(-2.613954e-03 9.462705e+00 8.254626e-03)	(2.937360e-04 -5.485474e-03 -1.203973e-03)
120.125       	(-2.316750e-03 9.457207e+00 7.059142e-03)	(-2.607759e-03 9.462692e+00 8.259985e-03)	(2.910093e-04 -5.485595e-03 -1.200843e-03)
120.15        	(-2.410159e-03 9.457413e+00 6.814375e-03)	(-2.698061e-03 9.462898e+00 8.012409e-03)	(2.879018e-04 -5.485294e-03 -1.198033e-03)
120.175       	(-2.357580e-03 9.457204e+00 6.854389e-03)	(-2.642646e-03 9.462689e+00 8.049345e-03)	(2.850661e-04 -5.485374e-03 -1.194956e-03)
120.2         	(-2.378232e-03 9.457171e+00 6.663356e-03)	(-2.660625e-03 9.462656e+00 7.855351e-03)	(2.823937e-04 -5.485581e-03 -1.191994e-03)
120.225       	(-2.426405e-03 9.457176e+00 6.616270e-03)	(-2.705903e-03 9.462662e+00 7.805344e-03)	(2.794979e-04 -5.485776e-03 -1.189073e-03)
120.25        	(-2.462020e-03 9.457175e+00 6.454351e-03)	(-2.738484e-03 9.462661e+00 7.640648e-03)	(2.764642e-04 -5.485878e-03 -1.186297e-03)
120.275       	(-2.503988e-03 9.457469e+00 6.375834e-03)	(-2.777312e-03 9.462954e+00 7.559342e-03)	(2.733238e-04 -5.485525e-03 -1.183508e-03)
120.3         	(-2.436971e-03 9.457025e+00 6.340543e-03)	(-2.707670e-03 9.462511e+00 7.521001e-03)	(2.706989e-04 -5.485848e-03 -1.180458e-03)
120.325       	(-2.607939e-03 9.457410e+00 6.071738e-03)	(-2.875319e-03 9.462896e+00 7.249645e-03)	(2.673806e-04 -5.485767e-03 -1.177907e-03)
120.35        	(-2.433611e-03 9.457209e+00 6.272106e-03)	(-2.698492e-03 9.462695e+00 7.446680e-03)	(2.648807e-04 -5.485771e-03 -1.174573e-03)
120.375       	(-2.653426e-03 9.457364e+00 5.812435e-03)	(-2.915096e-03 9.462849e+00 6.984478e-03)	(2.616706e-04 -5.485721e-03 -1.172043e-03)
120.4         	(-2.551243e-03 9.457208e+00 6.050116e-03)	(-2.809948e-03 9.462694e+00 7.218973e-03)	(2.587043e-04 -5.485861e-03 -1.168856e-03)
120.425       	(-2.583537e-03 9.457220e+00 5.730103e-03)	(-2.839568e-03 9.462706e+00 6.896073e-03)	(2.560306e-04 -5.486063e-03 -1.165969e-03)
120.45        	(-2.630730e-03 9.457217e+00 5.777096e-03)	(-2.883827e-03 9.462703e+00 6.940040e-03)	(2.530972e-04 -5.486199e-03 -1.162944e-03)
120.475       	(-2.702448e-03 9.457498e+00 5.540365e-03)	(-2.952275e-03 9.462984e+00 6.700539e-03)	(2.498269e-04 -5.485879e-03 -1.160174e-03)
120.5         	(-2.588592e-03 9.457144e+00 5.650638e-03)	(-2.835877e-03 9.462630e+00 6.807503e-03)	(2.472858e-04 -5.486089e-03 -1.156865e-03)
120.525       	(-2.800263e-03 9.457329e+00 5.236259e-03)	(-3.044189e-03 9.462815e+00 6.390644e-03)	(2.439260e-04 -5.486187e-03 -1.154385e-03)
120.55        	(-2.604615e-03 9.457354e+00 5.528843e-03)	(-2.846020e-03 9.462840e+00 6.679822e-03)	(2.414049e-04 -5.486105e-03 -1.150979e-03)
120.575       	(-2.851021e-03 9.457358e+00 5.021117e-03)	(-3.089107e-03 9.462844e+00 6.169525e-03)	(2.380852e-04 -5.486054e-03 -1.148407e-03)
120.6         	(-2.676511e-03 9.457250e+00 5.352785e-03)	(-2.911871e-03 9.462737e+00 6.497739e-03)	(2.353593e-04 -5.486218e-03 -1.144954e-03)
120.625       	(-2.771128e-03 9.457268e+00 4.899873e-03)	(-3.003824e-03 9.462754e+00 6.042055e-03)	(2.326965e-04 -5.486411e-03 -1.142183e-03)
120.65        	(-2.889651e-03 9.457447e+00 4.981654e-03)	(-3.118862e-03 9.462933e+00 6.120975e-03)	(2.292111e-04 -5.486235e-03 -1.139321e-03)
120.675       	(-2.818783e-03 9.457316e+00 4.819877e-03)	(-3.044946e-03 9.462802e+00 5.956161e-03)	(2.261634e-04 -5.486266e-03 -1.136285e-03)
120.7         	(-2.817134e-03 9.457272e+00 4.800985e-03)	(-3.040649e-03 9.462759e+00 5.934102e-03)	(2.235146e-04 -5.486479e-03 -1.133117e-03)
120.725       	(-2.937114e-03 9.457497e+00 4.555115e-03)	(-3.157441e-03 9.462983e+00 5.685461e-03)	(2.203274e-04 -5.486362e-03 -1.130346e-03)
120.75        	(-2.854532e-03 9.457318e+00 4.669029e-03)	(-3.072048e-03 9.462804e+00 5.796103e-03)	(2.175154e-04 -5.486387e-03 -1.127075e-03)
120.775       	(-2.886604e-03 9.457292e+00 4.420462e-03)	(-3.101453e-03 9.462779e+00 5.544498e-03)	(2.148493e-04 -5.486629e-03 -1.124036e-03)
120.8         	(-2.947649e-03 9.457322e+00 4.406871e-03)	(-3.159485e-03 9.462809e+00 5.527876e-03)	(2.118359e-04 -5.486760e-03 -1.121005e-03)
120.825       	(-3.032027e-03 9.457527e+00 4.191195e-03)	(-3.240425e-03 9.463013e+00 5.309446e-03)	(2.083978e-04 -5.486527e-03 -1.118251e-03)
120.85        	(-2.952001e-03 9.457340e+00 4.252548e-03)	(-3.157516e-03 9.462827e+00 5.367610e-03)	(2.055148e-04 -5.486569e-03 -1.115062e-03)
120.875       	(-2.974375e-03 9.457329e+00 4.062275e-03)	(-3.177237e-03 9.462816e+00 5.174244e-03)	(2.028620e-04 -5.486792e-03 -1.111969e-03)
120.9         	(-3.028790e-03 9.457345e+00 3.998179e-03)	(-3.228708e-03 9.462832e+00 5.107094e-03)	(1.999181e-04 -5.486906e-03 -1.108915e-03)
120.925       	(-3.134049e-03 9.457569e+00 3.810289e-03)	(-3.330470e-03 9.463055e+00 4.916440e-03)	(1.964208e-04 -5.486640e-03 -1.106150e-03)
120.95        	(-3.044350e-03 9.457369e+00 3.866088e-03)	(-3.237840e-03 9.462856e+00 4.968999e-03)	(1.934895e-04 -5.486685e-03 -1.102911e-03)
120.975       	(-3.058049e-03 9.457349e+00 3.673235e-03)	(-3.248924e-03 9.462836e+00 4.773045e-03)	(1.908749e-04 -5.486919e-03 -1.099809e-03)
121           	(-3.110728e-03 9.457363e+00 3.629141e-03)	(-3.298712e-03 9.462850e+00 4.725857e-03)	(1.879843e-04 -5.487061e-03 -1.096716e-03)
121.025       	(-3.230141e-03 9.457606e+00 3.414616e-03)	(-3.414586e-03 9.463093e+00 4.508564e-03)	(1.844450e-04 -5.486776e-03 -1.093948e-03)
121.05        	(-3.128784e-03 9.457361e+00 3.497210e-03)	(-3.310295e-03 9.462847e+00 4.587877e-03)	(1.815111e-04 -5.486876e-03 -1.090667e-03)
121.075       	(-3.142712e-03 9.457361e+00 3.288559e-03)	(-3.321636e-03 9.462848e+00 4.376090e-03)	(1.789244e-04 -5.487148e-03 -1.087531e-03)
121.1         	(-3.291139e-03 9.457622e+00 3.149442e-03)	(-3.466718e-03 9.463109e+00 4.234133e-03)	(1.755786e-04 -5.486957e-03 -1.084691e-03)
121.125       	(-3.178630e-03 9.457347e+00 3.208869e-03)	(-3.351368e-03 9.462835e+00 4.290209e-03)	(1.727383e-04 -5.487115e-03 -1.081340e-03)
121.15        	(-3.218964e-03 9.457377e+00 2.997488e-03)	(-3.389039e-03 9.462864e+00 4.075746e-03)	(1.700747e-04 -5.487382e-03 -1.078257e-03)
121.175       	(-3.342944e-03 9.457642e+00 2.881867e-03)	(-3.509622e-03 9.463129e+00 3.957288e-03)	(1.666778e-04 -5.487093e-03 -1.075421e-03)
121.2         	(-3.284384e-03 9.457454e+00 2.867799e-03)	(-3.447978e-03 9.462941e+00 3.940050e-03)	(1.635940e-04 -5.487070e-03 -1.072251e-03)
121.225       	(-3.292034e-03 9.457414e+00 2.720422e-03)	(-3.452862e-03 9.462901e+00 3.789555e-03)	(1.608287e-04 -5.487302e-03 -1.069133e-03)
121.25        	(-3.331481e-03 9.457416e+00 2.651797e-03)	(-3.489397e-03 9.462904e+00 3.717826e-03)	(1.579163e-04 -5.487488e-03 -1.066029e-03)
121.275       	(-3.447679e-03 9.457698e+00 2.448649e-03)	(-3.602085e-03 9.463185e+00 3.511882e-03)	(1.544054e-04 -5.487167e-03 -1.063232e-03)
121.3         	(-3.357238e-03 9.457449e+00 2.520363e-03)	(-3.508669e-03 9.462936e+00 3.580289e-03)	(1.514314e-04 -5.487204e-03 -1.059927e-03)
121.325       	(-3.370217e-03 9.457445e+00 2.318103e-03)	(-3.519001e-03 9.462933e+00 3.374878e-03)	(1.487838e-04 -5.487446e-03 -1.056775e-03)
121.35        	(-3.424061e-03 9.457451e+00 2.277849e-03)	(-3.569916e-03 9.462939e+00 3.331496e-03)	(1.458548e-04 -5.487609e-03 -1.053647e-03)
121.375       	(-3.563007e-03 9.457694e+00 2.009347e-03)	(-3.705241e-03 9.463182e+00 3.060268e-03)	(1.422344e-04 -5.487401e-03 -1.050921e-03)
121.4         	(-3.360775e-03 9.457438e+00 2.233815e-03)	(-3.500500e-03 9.462926e+00 3.281109e-03)	(1.397248e-04 -5.487492e-03 -1.047293e-03)
121.425       	(-3.507840e-03 9.457513e+00 1.821359e-03)	(-3.644762e-03 9.463001e+00 2.865759e-03)	(1.369219e-04 -5.487654e-03 -1.044400e-03)
121.45        	(-3.555187e-03 9.457538e+00 1.944329e-03)	(-3.688751e-03 9.463026e+00 2.985573e-03)	(1.335637e-04 -5.487681e-03 -1.041244e-03)
121.475       	(-3.571189e-03 9.457614e+00 1.654083e-03)	(-3.701484e-03 9.463101e+00 2.692435e-03)	(1.302950e-04 -5.487583e-03 -1.038351e-03)
121.5         	(-3.566356e-03 9.457626e+00 1.716438e-03)	(-3.693621e-03 9.463114e+00 2.751585e-03)	(1.272658e-04 -5.487497e-03 -1.035147e-03)
121.525       	(-3.583478e-03 9.457436e+00 1.521999e-03)	(-3.707800e-03 9.462924e+00 2.554039e-03)	(1.243215e-04 -5.487764e-03 -1.032041e-03)
121.55        	(-3.611258e-03 9.457554e+00 1.494390e-03)	(-3.732575e-03 9.463041e+00 2.523271e-03)	(1.213176e-04 -5.487896e-03 -1.028881e-03)
121.575       	(-3.697541e-03 9.457726e+00 1.289226e-03)	(-3.815471e-03 9.463214e+00 2.315177e-03)	(1.179300e-04 -5.487640e-03 -1.025951e-03)
121.6         	(-3.636516e-03 9.457576e+00 1.324254e-03)	(-3.751452e-03 9.463064e+00 2.346902e-03)	(1.149364e-04 -5.487649e-03 -1.022648e-03)
121.625       	(-3.652069e-03 9.457480e+00 1.151935e-03)	(-3.764243e-03 9.462968e+00 2.171382e-03)	(1.121745e-04 -5.487936e-03 -1.019447e-03)
121.65        	(-3.695606e-03 9.457549e+00 1.096090e-03)	(-3.804815e-03 9.463037e+00 2.112357e-03)	(1.092084e-04 -5.488100e-03 -1.016267e-03)
121.675       	(-3.810930e-03 9.457782e+00 8.750799e-04)	(-3.916577e-03 9.463270e+00 1.888512e-03)	(1.056471e-04 -5.487802e-03 -1.013432e-03)
121.7         	(-3.719863e-03 9.457558e+00 9.619068e-04)	(-3.822495e-03 9.463046e+00 1.971972e-03)	(1.026318e-04 -5.487847e-03 -1.010065e-03)
121.725       	(-3.733929e-03 9.457545e+00 7.412090e-04)	(-3.833869e-03 9.463033e+00 1.748089e-03)	(9.994023e-05 -5.488092e-03 -1.006880e-03)
121.75        	(-3.787524e-03 9.457553e+00 7.170902e-04)	(-3.884492e-03 9.463042e+00 1.720774e-03)	(9.696833e-05 -5.488263e-03 -1.003683e-03)
121.775       	(-3.904403e-03 9.457846e+00 4.822978e-04)	(-3.997767e-03 9.463334e+00 1.483117e-03)	(9.336389e-05 -5.487909e-03 -1.000820e-03)
121.8         	(-3.804110e-03 9.457575e+00 5.848841e-04)	(-3.894476e-03 9.463063e+00 1.582279e-03)	(9.036637e-05 -5.487973e-03 -9.973954e-04)
121.825       	(-3.819113e-03 9.457588e+00 3.520065e-04)	(-3.906816e-03 9.463076e+00 1.346181e-03)	(8.770241e-05 -5.488220e-03 -9.941742e-04)
121.85        	(-3.876399e-03 9.457583e+00 3.329546e-04)	(-3.961123e-03 9.463072e+00 1.323911e-03)	(8.472413e-05 -5.488380e-03 -9.909562e-04)
121.875       	(-4.011093e-03 9.457825e+00 5.384508e-05)	(-4.092164e-03 9.463313e+00 1.041984e-03)	(8.107028e-05 -5.488186e-03 -9.881388e-04)
121.9         	(-3.784927e-03 9.457570e+00 3.218984e-04)	(-3.863595e-03 9.463059e+00 1.306214e-03)	(7.866874e-05 -5.488296e-03 -9.843154e-04)
121.925       	(-4.058228e-03 9.457731e+00 -2.410261e-04)	(-4.133521e-03 9.463219e+00 7.406272e-04)	(7.529350e-05 -5.488314e-03 -9.816532e-04)
121.95        	(-3.969929e-03 9.457579e+00 3.126833e-05)	(-4.041877e-03 9.463068e+00 1.009601e-03)	(7.194831e-05 -5.488446e-03 -9.783327e-04)
121.975       	(-3.934967e-03 9.457825e+00 -2.437397e-04)	(-4.004277e-03 9.463314e+00 7.312852e-04)	(6.930978e-05 -5.488312e-03 -9.750248e-04)
122           	(-4.047982e-03 9.457669e+00 -2.914873e-04)	(-4.114148e-03 9.463158e+00 6.804282e-04)	(6.616637e-05 -5.488315e-03 -9.719154e-04)
122.025       	(-4.058204e-03 9.457664e+00 -4.187370e-04)	(-4.121075e-03 9.463153e+00 5.500415e-04)	(6.287053e-05 -5.488522e-03 -9.687785e-04)
122.05        	(-4.072159e-03 9.457671e+00 -5.087404e-04)	(-4.131886e-03 9.463160e+00 4.568874e-04)	(5.972709e-05 -5.488629e-03 -9.656278e-04)
122.075       	(-4.087487e-03 9.457653e+00 -6.024101e-04)	(-4.144145e-03 9.463142e+00 3.600260e-04)	(5.665791e-05 -5.488751e-03 -9.624360e-04)
122.1         	(-4.163141e-03 9.457907e+00 -7.446476e-04)	(-4.216437e-03 9.463395e+00 2.147287e-04)	(5.329602e-05 -5.488472e-03 -9.593763e-04)
122.125       	(-4.050589e-03 9.457600e+00 -6.837034e-04)	(-4.101205e-03 9.463089e+00 2.720795e-04)	(5.061581e-05 -5.488654e-03 -9.557829e-04)
122.15        	(-4.229237e-03 9.457709e+00 -1.064579e-03)	(-4.276528e-03 9.463198e+00 -1.115713e-04)	(4.729079e-05 -5.488848e-03 -9.530073e-04)
122.175       	(-4.126732e-03 9.457878e+00 -8.195005e-04)	(-4.171043e-03 9.463367e+00 1.299438e-04)	(4.431074e-05 -5.488602e-03 -9.494443e-04)
122.2         	(-4.279221e-03 9.457661e+00 -1.300187e-03)	(-4.320128e-03 9.463150e+00 -3.535181e-04)	(4.090682e-05 -5.488727e-03 -9.466693e-04)
122.225       	(-4.205761e-03 9.457696e+00 -1.048209e-03)	(-4.243534e-03 9.463185e+00 -1.050089e-04)	(3.777288e-05 -5.488971e-03 -9.432002e-04)
122.25        	(-4.253907e-03 9.457978e+00 -1.394844e-03)	(-4.288668e-03 9.463466e+00 -4.547623e-04)	(3.476096e-05 -5.488665e-03 -9.400812e-04)
122.275       	(-4.256211e-03 9.457764e+00 -1.336186e-03)	(-4.287953e-03 9.463253e+00 -3.993899e-04)	(3.174204e-05 -5.488608e-03 -9.367964e-04)
122.3         	(-4.290176e-03 9.457746e+00 -1.532857e-03)	(-4.318858e-03 9.463235e+00 -5.992703e-04)	(2.868110e-05 -5.488831e-03 -9.335869e-04)
122.325       	(-4.325547e-03 9.457764e+00 -1.570894e-03)	(-4.351049e-03 9.463253e+00 -6.405432e-04)	(2.550187e-05 -5.488961e-03 -9.303508e-04)
122.35        	(-4.349076e-03 9.457733e+00 -1.732230e-03)	(-4.371384e-03 9.463222e+00 -8.050146e-04)	(2.230770e-05 -5.489094e-03 -9.272150e-04)
122.375       	(-4.409061e-03 9.457947e+00 -1.815136e-03)	(-4.427983e-03 9.463436e+00 -8.910627e-04)	(1.892276e-05 -5.488881e-03 -9.240731e-04)
122.4         	(-4.366995e-03 9.457769e+00 -1.856235e-03)	(-4.382871e-03 9.463258e+00 -9.355247e-04)	(1.587594e-05 -5.489004e-03 -9.207107e-04)
122.425       	(-4.383688e-03 9.457756e+00 -1.978435e-03)	(-4.396684e-03 9.463245e+00 -1.061068e-03)	(1.299599e-05 -5.489200e-03 -9.173672e-04)
122.45        	(-4.429151e-03 9.457742e+00 -2.087331e-03)	(-4.439067e-03 9.463231e+00 -1.173205e-03)	(9.916354e-06 -5.489339e-03 -9.141255e-04)
122.475       	(-4.537021e-03 9.458071e+00 -2.266354e-03)	(-4.543310e-03 9.463560e+00 -1.355213e-03)	(6.289038e-06 -5.488931e-03 -9.111406e-04)
122.5         	(-4.441876e-03 9.457773e+00 -2.202326e-03)	(-4.445121e-03 9.463262e+00 -1.294691e-03)	(3.245815e-06 -5.489004e-03 -9.076358e-04)
122.525       	(-4.461080e-03 9.457801e+00 -2.410757e-03)	(-4.461574e-03 9.463291e+00 -1.506448e-03)	(4.941731e-07 -5.489254e-03 -9.043090e-04)
122.55        	(-4.518261e-03 9.457786e+00 -2.450818e-03)	(-4.515687e-03 9.463276e+00 -1.549808e-03)	(-2.573462e-06 -5.489418e-03 -9.010097e-04)
122.575       	(-4.657513e-03 9.458004e+00 -2.726684e-03)	(-4.651181e-03 9.463493e+00 -1.828536e-03)	(-6.331690e-06 -5.489265e-03 -8.981477e-04)
122.6         	(-4.459517e-03 9.457814e+00 -2.508521e-03)	(-4.450522e-03 9.463303e+00 -1.614134e-03)	(-8.994549e-06 -5.489297e-03 -8.943869e-04)
122.625       	(-4.584862e-03 9.457840e+00 -2.894479e-03)	(-4.573031e-03 9.463330e+00 -2.003237e-03)	(-1.183099e-05 -5.489460e-03 -8.912419e-04)
122.65        	(-4.648437e-03 9.457858e+00 -2.818627e-03)	(-4.633159e-03 9.463348e+00 -1.930651e-03)	(-1.527879e-05 -5.489538e-03 -8.879758e-04)
122.675       	(-4.671934e-03 9.458002e+00 -3.053769e-03)	(-4.653211e-03 9.463491e+00 -2.168932e-03)	(-1.872365e-05 -5.489372e-03 -8.848373e-04)
122.7         	(-4.654766e-03 9.457989e+00 -3.051758e-03)	(-4.632905e-03 9.463478e+00 -2.170224e-03)	(-2.186102e-05 -5.489235e-03 -8.815340e-04)
122.725       	(-4.667975e-03 9.457832e+00 -3.193097e-03)	(-4.643116e-03 9.463322e+00 -2.314911e-03)	(-2.485859e-05 -5.489439e-03 -8.781860e-04)
122.75        	(-4.699431e-03 9.457903e+00 -3.262266e-03)	(-4.671491e-03 9.463393e+00 -2.387410e-03)	(-2.794056e-05 -5.489592e-03 -8.748565e-04)
122.775       	(-4.735837e-03 9.457826e+00 -3.417000e-03)	(-4.704690e-03 9.463316e+00 -2.545334e-03)	(-3.114677e-05 -5.489778e-03 -8.716660e-04)
122.8         	(-4.827404e-03 9.458080e+00 -3.529046e-03)	(-4.792651e-03 9.463570e+00 -2.660478e-03)	(-3.475375e-05 -5.489574e-03 -8.685683e-04)
122.825       	(-4.729890e-03 9.457921e+00 -3.523818e-03)	(-4.692149e-03 9.463411e+00 -2.658740e-03)	(-3.774106e-05 -5.489539e-03 -8.650778e-04)
122.85        	(-4.766394e-03 9.457901e+00 -3.679884e-03)	(-4.725835e-03 9.463391e+00 -2.818206e-03)	(-4.055957e-05 -5.489798e-03 -8.616787e-04)
122.875       	(-4.816635e-03 9.457926e+00 -3.754721e-03)	(-4.772947e-03 9.463416e+00 -2.896375e-03)	(-4.368863e-05 -5.489888e-03 -8.583463e-04)
122.9         	(-4.945906e-03 9.457999e+00 -3.994049e-03)	(-4.898465e-03 9.463489e+00 -3.138660e-03)	(-4.744081e-05 -5.489785e-03 -8.553891e-04)
122.925       	(-4.789886e-03 9.457979e+00 -3.862483e-03)	(-4.739587e-03 9.463469e+00 -3.010709e-03)	(-5.029876e-05 -5.489805e-03 -8.517740e-04)
122.95        	(-4.854429e-03 9.457916e+00 -4.106207e-03)	(-4.801376e-03 9.463406e+00 -3.257889e-03)	(-5.305243e-05 -5.489971e-03 -8.483176e-04)
122.975       	(-4.941871e-03 9.457910e+00 -4.174081e-03)	(-4.885448e-03 9.463400e+00 -3.328984e-03)	(-5.642291e-05 -5.490136e-03 -8.450976e-04)
123           	(-4.971231e-03 9.458181e+00 -4.291218e-03)	(-4.911306e-03 9.463671e+00 -3.449357e-03)	(-5.992481e-05 -5.489855e-03 -8.418612e-04)
123.025       	(-4.861425e-03 9.457833e+00 -4.305142e-03)	(-4.798824e-03 9.463323e+00 -3.466836e-03)	(-6.260099e-05 -5.490051e-03 -8.383060e-04)
123.05        	(-5.114064e-03 9.458099e+00 -4.620891e-03)	(-5.047702e-03 9.463589e+00 -3.785528e-03)	(-6.636243e-05 -5.490066e-03 -8.353630e-04)
123.075       	(-4.890022e-03 9.458060e+00 -4.398622e-03)	(-4.820837e-03 9.463550e+00 -3.567031e-03)	(-6.918445e-05 -5.489938e-03 -8.315918e-04)
123.1         	(-5.041491e-03 9.458011e+00 -4.818051e-03)	(-4.969307e-03 9.463501e+00 -3.989552e-03)	(-7.218356e-05 -5.490006e-03 -8.284982e-04)
123.125       	(-5.075704e-03 9.458057e+00 -4.690340e-03)	(-5.000044e-03 9.463547e+00 -3.865200e-03)	(-7.565946e-05 -5.490033e-03 -8.251400e-04)
123.15        	(-5.088038e-03 9.457981e+00 -4.961461e-03)	(-5.009035e-03 9.463472e+00 -4.139535e-03)	(-7.900285e-05 -5.490175e-03 -8.219255e-04)
123.175       	(-5.093761e-03 9.457962e+00 -4.918070e-03)	(-5.011583e-03 9.463452e+00 -4.099578e-03)	(-8.217890e-05 -5.490382e-03 -8.184919e-04)
123.2         	(-5.139574e-03 9.458191e+00 -5.126049e-03)	(-5.054120e-03 9.463681e+00 -4.310872e-03)	(-8.545371e-05 -5.490169e-03 -8.151765e-04)
123.225       	(-5.121157e-03 9.458133e+00 -5.146992e-03)	(-5.032607e-03 9.463623e+00 -4.335194e-03)	(-8.854955e-05 -5.490021e-03 -8.117978e-04)
123.25        	(-5.146770e-03 9.458009e+00 -5.283344e-03)	(-5.055178e-03 9.463499e+00 -4.474943e-03)	(-9.159210e-05 -5.490203e-03 -8.084007e-04)
123.275       	(-5.181765e-03 9.458047e+00 -5.361213e-03)	(-5.087003e-03 9.463537e+00 -4.556202e-03)	(-9.476156e-05 -5.490382e-03 -8.050111e-04)
123.3         	(-5.215823e-03 9.457995e+00 -5.491168e-03)	(-5.117790e-03 9.463486e+00 -4.689449e-03)	(-9.803306e-05 -5.490552e-03 -8.017196e-04)
123.325       	(-5.291265e-03 9.458180e+00 -5.626453e-03)	(-5.189664e-03 9.463670e+00 -4.827899e-03)	(-1.016012e-04 -5.490423e-03 -7.985539e-04)
123.35        	(-5.226934e-03 9.458075e+00 -5.624583e-03)	(-5.122223e-03 9.463566e+00 -4.829565e-03)	(-1.047118e-04 -5.490448e-03 -7.950182e-04)
123.375       	(-5.243521e-03 9.458035e+00 -5.778444e-03)	(-5.135919e-03 9.463526e+00 -4.986907e-03)	(-1.076013e-04 -5.490648e-03 -7.915369e-04)
123.4         	(-5.408747e-03 9.458219e+00 -5.998417e-03)	(-5.297442e-03 9.463710e+00 -5.209838e-03)	(-1.113048e-04 -5.490542e-03 -7.885790e-04)
123.425       	(-5.222572e-03 9.458066e+00 -5.805268e-03)	(-5.108480e-03 9.463556e+00 -5.020572e-03)	(-1.140920e-04 -5.490607e-03 -7.846967e-04)
123.45        	(-5.324607e-03 9.458096e+00 -6.176495e-03)	(-5.207667e-03 9.463587e+00 -5.395071e-03)	(-1.169399e-04 -5.490737e-03 -7.814242e-04)
123.475       	(-5.401259e-03 9.458093e+00 -6.122566e-03)	(-5.280841e-03 9.463584e+00 -5.344489e-03)	(-1.204181e-04 -5.490801e-03 -7.780769e-04)
123.5         	(-5.415856e-03 9.458248e+00 -6.343978e-03)	(-5.291964e-03 9.463738e+00 -5.569151e-03)	(-1.238919e-04 -5.490675e-03 -7.748268e-04)
123.525       	(-5.406497e-03 9.458223e+00 -6.334255e-03)	(-5.279414e-03 9.463713e+00 -5.562893e-03)	(-1.270832e-04 -5.490554e-03 -7.713617e-04)
123.55        	(-5.423905e-03 9.458131e+00 -6.497118e-03)	(-5.293727e-03 9.463622e+00 -5.729164e-03)	(-1.301778e-04 -5.490685e-03 -7.679549e-04)
123.575       	(-5.456579e-03 9.458116e+00 -6.544849e-03)	(-5.323216e-03 9.463607e+00 -5.780353e-03)	(-1.333634e-04 -5.490864e-03 -7.644954e-04)
123.6         	(-5.487906e-03 9.458081e+00 -6.715199e-03)	(-5.351273e-03 9.463572e+00 -5.954006e-03)	(-1.366330e-04 -5.491062e-03 -7.611934e-04)
123.625       	(-5.569154e-03 9.458315e+00 -6.815069e-03)	(-5.428920e-03 9.463806e+00 -6.057116e-03)	(-1.402349e-04 -5.490869e-03 -7.579527e-04)
123.65        	(-5.501272e-03 9.458245e+00 -6.851725e-03)	(-5.357896e-03 9.463736e+00 -6.097296e-03)	(-1.433756e-04 -5.490724e-03 -7.544294e-04)
123.675       	(-5.517512e-03 9.458137e+00 -6.972605e-03)	(-5.371232e-03 9.463628e+00 -6.221673e-03)	(-1.462805e-04 -5.490901e-03 -7.509318e-04)
123.7         	(-5.556078e-03 9.458161e+00 -7.039446e-03)	(-5.406706e-03 9.463652e+00 -6.292033e-03)	(-1.493722e-04 -5.491080e-03 -7.474131e-04)
123.725       	(-5.603159e-03 9.458138e+00 -7.201415e-03)	(-5.450483e-03 9.463630e+00 -6.457341e-03)	(-1.526759e-04 -5.491232e-03 -7.440732e-04)
123.75        	(-5.698706e-03 9.458325e+00 -7.346731e-03)	(-5.542292e-03 9.463816e+00 -6.605790e-03)	(-1.564142e-04 -5.491070e-03 -7.409403e-04)
123.775       	(-5.609660e-03 9.458276e+00 -7.307426e-03)	(-5.450094e-03 9.463767e+00 -6.570127e-03)	(-1.595664e-04 -5.490958e-03 -7.372992e-04)
123.8         	(-5.622176e-03 9.458181e+00 -7.497099e-03)	(-5.459771e-03 9.463672e+00 -6.763297e-03)	(-1.624048e-04 -5.491127e-03 -7.338025e-04)
123.825       	(-5.666934e-03 9.458202e+00 -7.539077e-03)	(-5.501456e-03 9.463693e+00 -6.808774e-03)	(-1.654786e-04 -5.491292e-03 -7.303026e-04)
123.85        	(-5.741674e-03 9.458145e+00 -7.750519e-03)	(-5.572735e-03 9.463636e+00 -7.023406e-03)	(-1.689395e-04 -5.491468e-03 -7.271124e-04)
123.875       	(-5.749109e-03 9.458573e+00 -7.752657e-03)	(-5.576736e-03 9.464064e+00 -7.028922e-03)	(-1.723732e-04 -5.491017e-03 -7.237355e-04)
123.9         	(-5.735644e-03 9.457880e+00 -7.906933e-03)	(-5.560142e-03 9.463372e+00 -7.186658e-03)	(-1.755027e-04 -5.491545e-03 -7.202754e-04)
123.925       	(-5.814901e-03 9.458597e+00 -8.027319e-03)	(-5.636010e-03 9.464088e+00 -7.310348e-03)	(-1.788910e-04 -5.491257e-03 -7.169709e-04)
123.95        	(-5.788880e-03 9.458243e+00 -8.029906e-03)	(-5.606757e-03 9.463734e+00 -7.316547e-03)	(-1.821237e-04 -5.491131e-03 -7.133586e-04)
123.975       	(-5.806067e-03 9.458137e+00 -8.211230e-03)	(-5.620863e-03 9.463628e+00 -7.501317e-03)	(-1.852045e-04 -5.491546e-03 -7.099128e-04)
124           	(-5.843687e-03 9.458216e+00 -8.268149e-03)	(-5.655275e-03 9.463708e+00 -7.561662e-03)	(-1.884122e-04 -5.491771e-03 -7.064873e-04)
124.025       	(-5.927143e-03 9.458548e+00 -8.469179e-03)	(-5.735137e-03 9.464040e+00 -7.765869e-03)	(-1.920062e-04 -5.491337e-03 -7.033092e-04)
124.05        	(-5.815791e-03 9.458127e+00 -8.361786e-03)	(-5.620882e-03 9.463618e+00 -7.662278e-03)	(-1.949086e-04 -5.491565e-03 -6.995075e-04)
124.075       	(-6.006207e-03 9.458411e+00 -8.786090e-03)	(-5.807701e-03 9.463902e+00 -8.089539e-03)	(-1.985061e-04 -5.491577e-03 -6.965508e-04)
124.1         	(-5.925428e-03 9.458306e+00 -8.527636e-03)	(-5.723555e-03 9.463798e+00 -7.834854e-03)	(-2.018735e-04 -5.491571e-03 -6.927814e-04)
124.125       	(-5.926554e-03 9.458257e+00 -8.898858e-03)	(-5.721747e-03 9.463749e+00 -8.209467e-03)	(-2.048069e-04 -5.491770e-03 -6.893914e-04)
124.15        	(-6.053801e-03 9.458478e+00 -8.890005e-03)	(-5.845415e-03 9.463970e+00 -8.203914e-03)	(-2.083858e-04 -5.491566e-03 -6.860909e-04)
124.175       	(-5.977553e-03 9.458351e+00 -8.977654e-03)	(-5.765958e-03 9.463843e+00 -8.295154e-03)	(-2.115956e-04 -5.491561e-03 -6.825001e-04)
124.2         	(-5.995051e-03 9.458329e+00 -9.084390e-03)	(-5.780518e-03 9.463821e+00 -8.405446e-03)	(-2.145333e-04 -5.491727e-03 -6.789446e-04)
124.225       	(-6.042891e-03 9.458289e+00 -9.200750e-03)	(-5.825184e-03 9.463780e+00 -8.525232e-03)	(-2.177068e-04 -5.491913e-03 -6.755181e-04)
124.25        	(-6.197960e-03 9.458449e+00 -9.434108e-03)	(-5.976327e-03 9.463941e+00 -8.761648e-03)	(-2.216337e-04 -5.491865e-03 -6.724601e-04)
124.275       	(-6.051239e-03 9.458392e+00 -9.276131e-03)	(-5.826462e-03 9.463884e+00 -8.607498e-03)	(-2.247766e-04 -5.491822e-03 -6.686335e-04)
124.3         	(-6.075300e-03 9.458347e+00 -9.571934e-03)	(-5.847737e-03 9.463839e+00 -8.906758e-03)	(-2.275626e-04 -5.491938e-03 -6.651766e-04)
124.325       	(-6.148467e-03 9.458295e+00 -9.556752e-03)	(-5.917660e-03 9.463787e+00 -8.895066e-03)	(-2.308065e-04 -5.492138e-03 -6.616854e-04)
124.35        	(-6.259673e-03 9.458570e+00 -9.787710e-03)	(-6.024997e-03 9.464062e+00 -9.129287e-03)	(-2.346756e-04 -5.491939e-03 -6.584230e-04)
124.375       	(-6.013063e-03 9.458329e+00 -9.610039e-03)	(-5.775969e-03 9.463821e+00 -8.955654e-03)	(-2.370939e-04 -5.492024e-03 -6.543846e-04)
124.4         	(-6.384764e-03 9.458498e+00 -1.022348e-02)	(-6.143757e-03 9.463990e+00 -9.571686e-03)	(-2.410067e-04 -5.491999e-03 -6.517952e-04)
124.425       	(-6.167975e-03 9.458263e+00 -9.695040e-03)	(-5.923658e-03 9.463755e+00 -9.047338e-03)	(-2.443169e-04 -5.492257e-03 -6.477018e-04)
124.45        	(-6.301065e-03 9.458608e+00 -1.037829e-02)	(-6.053478e-03 9.464100e+00 -9.733662e-03)	(-2.475865e-04 -5.492063e-03 -6.446248e-04)
124.475       	(-6.264226e-03 9.458438e+00 -9.977480e-03)	(-6.013380e-03 9.463930e+00 -9.336756e-03)	(-2.508463e-04 -5.492021e-03 -6.407244e-04)
124.5         	(-6.278871e-03 9.458410e+00 -1.045953e-02)	(-6.024965e-03 9.463902e+00 -9.822179e-03)	(-2.539060e-04 -5.492213e-03 -6.373529e-04)
124.525       	(-6.320715e-03 9.458368e+00 -1.028096e-02)	(-6.063585e-03 9.463860e+00 -9.647251e-03)	(-2.571294e-04 -5.492418e-03 -6.337104e-04)
124.55        	(-6.445727e-03 9.458539e+00 -1.069981e-02)	(-6.184745e-03 9.464032e+00 -1.006910e-02)	(-2.609824e-04 -5.492301e-03 -6.307063e-04)
124.575       	(-6.340049e-03 9.458421e+00 -1.044632e-02)	(-6.075834e-03 9.463914e+00 -9.819473e-03)	(-2.642148e-04 -5.492361e-03 -6.268475e-04)
124.6         	(-6.347120e-03 9.458410e+00 -1.079821e-02)	(-6.080072e-03 9.463902e+00 -1.017489e-02)	(-2.670479e-04 -5.492565e-03 -6.233283e-04)
124.625       	(-6.465962e-03 9.458607e+00 -1.079575e-02)	(-6.195427e-03 9.464100e+00 -1.017581e-02)	(-2.705349e-04 -5.492361e-03 -6.199401e-04)
124.65        	(-6.425655e-03 9.458507e+00 -1.089962e-02)	(-6.151796e-03 9.463999e+00 -1.028330e-02)	(-2.738592e-04 -5.492318e-03 -6.163228e-04)
124.675       	(-6.438569e-03 9.458449e+00 -1.099979e-02)	(-6.161622e-03 9.463942e+00 -1.038705e-02)	(-2.769474e-04 -5.492507e-03 -6.127387e-04)
124.7         	(-6.470901e-03 9.458442e+00 -1.109340e-02)	(-6.190769e-03 9.463935e+00 -1.048422e-02)	(-2.801320e-04 -5.492681e-03 -6.091770e-04)
124.725       	(-6.616780e-03 9.458595e+00 -1.134759e-02)	(-6.332792e-03 9.464088e+00 -1.074154e-02)	(-2.839879e-04 -5.492615e-03 -6.060558e-04)
124.75        	(-6.483258e-03 9.458553e+00 -1.116580e-02)	(-6.196118e-03 9.464046e+00 -1.056367e-02)	(-2.871403e-04 -5.492539e-03 -6.021352e-04)
124.775       	(-6.509439e-03 9.458488e+00 -1.150375e-02)	(-6.219454e-03 9.463981e+00 -1.090508e-02)	(-2.899843e-04 -5.492658e-03 -5.986688e-04)
124.8         	(-6.573670e-03 9.458451e+00 -1.145005e-02)	(-6.280439e-03 9.463944e+00 -1.085495e-02)	(-2.932305e-04 -5.492860e-03 -5.951000e-04)
124.825       	(-6.669666e-03 9.458646e+00 -1.172392e-02)	(-6.372665e-03 9.464139e+00 -1.113205e-02)	(-2.970006e-04 -5.492727e-03 -5.918772e-04)
124.85        	(-6.615618e-03 9.458574e+00 -1.164818e-02)	(-6.315236e-03 9.464066e+00 -1.105997e-02)	(-3.003823e-04 -5.492678e-03 -5.882125e-04)
124.875       	(-6.613901e-03 9.458498e+00 -1.184232e-02)	(-6.310495e-03 9.463991e+00 -1.125772e-02)	(-3.034059e-04 -5.492856e-03 -5.845997e-04)
124.9         	(-6.644556e-03 9.458515e+00 -1.186827e-02)	(-6.338044e-03 9.464008e+00 -1.128732e-02)	(-3.065124e-04 -5.493006e-03 -5.809423e-04)
124.925       	(-6.772025e-03 9.458662e+00 -1.214399e-02)	(-6.461743e-03 9.464155e+00 -1.156622e-02)	(-3.102815e-04 -5.492882e-03 -5.777744e-04)
124.95        	(-6.686269e-03 9.458583e+00 -1.199174e-02)	(-6.372693e-03 9.464075e+00 -1.141780e-02)	(-3.135765e-04 -5.492853e-03 -5.739382e-04)
124.975       	(-6.692602e-03 9.458549e+00 -1.227970e-02)	(-6.376100e-03 9.464042e+00 -1.170932e-02)	(-3.165021e-04 -5.492995e-03 -5.703814e-04)
125           	(-6.741994e-03 9.458515e+00 -1.224994e-02)	(-6.422327e-03 9.464008e+00 -1.168319e-02)	(-3.196664e-04 -5.493179e-03 -5.667492e-04)
125.025       	(-6.867811e-03 9.458703e+00 -1.255066e-02)	(-6.544299e-03 9.464196e+00 -1.198707e-02)	(-3.235124e-04 -5.493044e-03 -5.635883e-04)
125.05        	(-6.763958e-03 9.458596e+00 -1.241697e-02)	(-6.437202e-03 9.464089e+00 -1.185713e-02)	(-3.267553e-04 -5.493011e-03 -5.598361e-04)
125.075       	(-6.784932e-03 9.458612e+00 -1.265019e-02)	(-6.455253e-03 9.464105e+00 -1.209402e-02)	(-3.296790e-04 -5.493126e-03 -5.561713e-04)
125.1         	(-6.849121e-03 9.458519e+00 -1.271438e-02)	(-6.516164e-03 9.464013e+00 -1.216174e-02)	(-3.329567e-04 -5.493329e-03 -5.526429e-04)
125.125       	(-6.975459e-03 9.458736e+00 -1.292425e-02)	(-6.638538e-03 9.464229e+00 -1.237485e-02)	(-3.369203e-04 -5.493218e-03 -5.493991e-04)
125.15        	(-6.843167e-03 9.458665e+00 -1.282083e-02)	(-6.503072e-03 9.464159e+00 -1.227530e-02)	(-3.400949e-04 -5.493138e-03 -5.455297e-04)
125.175       	(-6.862868e-03 9.458628e+00 -1.305469e-02)	(-6.519969e-03 9.464121e+00 -1.251281e-02)	(-3.428990e-04 -5.493246e-03 -5.418843e-04)