# Moment      
# CofR        : (0.000000e+00 0.000000e+00 0.000000e+00)
#
# Time        	(total_x total_y total_z)	(pressure_x pressure_y pressure_z)	(viscous_x viscous_y viscous_z)
29.025        	(1.573224e-04 7.280985e-01 1.454597e-05)	(1.469473e-04 5.342150e-01 -1.408128e-10)	(1.037511e-05 1.938835e-01 1.454612e-05)
29.05         	(1.594769e-04 7.280744e-01 1.449971e-05)	(1.487366e-04 5.342006e-01 -1.594637e-10)	(1.074025e-05 1.938737e-01 1.449987e-05)
29.075        	(1.600956e-04 7.280160e-01 1.445514e-05)	(1.489970e-04 5.341520e-01 -1.557700e-10)	(1.109861e-05 1.938640e-01 1.445529e-05)
29.1          	(1.599550e-04 7.279791e-01 1.440474e-05)	(1.485503e-04 5.341248e-01 -1.561938e-10)	(1.140466e-05 1.938542e-01 1.440490e-05)
29.125        	(1.625213e-04 7.279421e-01 1.435340e-05)	(1.508267e-04 5.340976e-01 -1.541552e-10)	(1.169463e-05 1.938444e-01 1.435356e-05)
29.15         	(1.664665e-04 7.279040e-01 1.430586e-05)	(1.544671e-04 5.340694e-01 -1.632046e-10)	(1.199934e-05 1.938346e-01 1.430602e-05)
29.175        	(1.666024e-04 7.278602e-01 1.424550e-05)	(1.542884e-04 5.340353e-01 -1.690204e-10)	(1.231396e-05 1.938249e-01 1.424567e-05)
29.2          	(1.698114e-04 7.278168e-01 1.418754e-05)	(1.571738e-04 5.340017e-01 -1.738621e-10)	(1.263759e-05 1.938151e-01 1.418772e-05)
29.225        	(1.713238e-04 7.277741e-01 1.412864e-05)	(1.583582e-04 5.339687e-01 -1.793292e-10)	(1.296559e-05 1.938054e-01 1.412882e-05)
29.25         	(1.731446e-04 7.277301e-01 1.406692e-05)	(1.598529e-04 5.339344e-01 -1.863008e-10)	(1.329170e-05 1.937957e-01 1.406710e-05)
29.275        	(1.747580e-04 7.276883e-01 1.400416e-05)	(1.611416e-04 5.339023e-01 -1.904973e-10)	(1.361638e-05 1.937860e-01 1.400436e-05)
29.3          	(1.764557e-04 7.276451e-01 1.394002e-05)	(1.625172e-04 5.338688e-01 -1.974648e-10)	(1.393846e-05 1.937764e-01 1.394022e-05)
29.325        	(1.778689e-04 7.276023e-01 1.387407e-05)	(1.636102e-04 5.338356e-01 -2.021262e-10)	(1.425862e-05 1.937667e-01 1.387427e-05)
29.35         	(1.800535e-04 7.275607e-01 1.380756e-05)	(1.654724e-04 5.338036e-01 -2.081308e-10)	(1.458109e-05 1.937571e-01 1.380777e-05)
29.375        	(1.814223e-04 7.275175e-01 1.373922e-05)	(1.665209e-04 5.337700e-01 -2.134335e-10)	(1.490136e-05 1.937475e-01 1.373943e-05)
29.4          	(1.831331e-04 7.274754e-01 1.366888e-05)	(1.679131e-04 5.337375e-01 -2.201391e-10)	(1.521999e-05 1.937379e-01 1.366910e-05)
29.425        	(1.845476e-04 7.274327e-01 1.359726e-05)	(1.690118e-04 5.337044e-01 -2.257956e-10)	(1.553578e-05 1.937283e-01 1.359748e-05)
29.45         	(1.858970e-04 7.273904e-01 1.352305e-05)	(1.700483e-04 5.336717e-01 -2.309625e-10)	(1.584868e-05 1.937187e-01 1.352328e-05)
29.475        	(1.877310e-04 7.273482e-01 1.344884e-05)	(1.715692e-04 5.336391e-01 -2.375655e-10)	(1.616180e-05 1.937092e-01 1.344908e-05)
29.5          	(1.894455e-04 7.273046e-01 1.337331e-05)	(1.729714e-04 5.336050e-01 -2.429377e-10)	(1.647409e-05 1.936996e-01 1.337355e-05)
29.525        	(1.900834e-04 7.272628e-01 1.329298e-05)	(1.733014e-04 5.335727e-01 -2.490761e-10)	(1.678198e-05 1.936901e-01 1.329323e-05)
29.55         	(1.922843e-04 7.272212e-01 1.321318e-05)	(1.751948e-04 5.335406e-01 -2.542098e-10)	(1.708950e-05 1.936806e-01 1.321343e-05)
29.575        	(1.931597e-04 7.271792e-01 1.313092e-05)	(1.757645e-04 5.335081e-01 -2.596833e-10)	(1.739517e-05 1.936711e-01 1.313118e-05)
29.6          	(1.947319e-04 7.271376e-01 1.304794e-05)	(1.770337e-04 5.334760e-01 -2.659442e-10)	(1.769819e-05 1.936616e-01 1.304820e-05)
29.625        	(1.964228e-04 7.270950e-01 1.296398e-05)	(1.784211e-04 5.334429e-01 -2.716758e-10)	(1.800168e-05 1.936521e-01 1.296425e-05)
29.65         	(1.971430e-04 7.270533e-01 1.287638e-05)	(1.788418e-04 5.334107e-01 -2.763544e-10)	(1.830124e-05 1.936427e-01 1.287665e-05)
29.675        	(1.991241e-04 7.270118e-01 1.278912e-05)	(1.805253e-04 5.333785e-01 -2.824978e-10)	(1.859888e-05 1.936332e-01 1.278940e-05)
29.7          	(1.998971e-04 7.269701e-01 1.269877e-05)	(1.810021e-04 5.333462e-01 -2.880578e-10)	(1.889506e-05 1.936238e-01 1.269905e-05)
29.725        	(2.017046e-04 7.269284e-01 1.260777e-05)	(1.825135e-04 5.333140e-01 -2.933559e-10)	(1.919112e-05 1.936144e-01 1.260807e-05)
29.75         	(2.031693e-04 7.268865e-01 1.251558e-05)	(1.836823e-04 5.332814e-01 -2.983404e-10)	(1.948695e-05 1.936050e-01 1.251587e-05)
29.775        	(2.031412e-04 7.268444e-01 1.241751e-05)	(1.833662e-04 5.332487e-01 -3.055729e-10)	(1.977491e-05 1.935957e-01 1.241782e-05)
29.8          	(2.056918e-04 7.268038e-01 1.232351e-05)	(1.856300e-04 5.332175e-01 -3.100093e-10)	(2.006178e-05 1.935863e-01 1.232382e-05)
29.825        	(2.059873e-04 7.267621e-01 1.222459e-05)	(1.856394e-04 5.331851e-01 -3.152786e-10)	(2.034790e-05 1.935770e-01 1.222490e-05)
29.85         	(2.078602e-04 7.267212e-01 1.212558e-05)	(1.872270e-04 5.331535e-01 -3.207293e-10)	(2.063315e-05 1.935676e-01 1.212590e-05)
29.875        	(2.095029e-04 7.266793e-01 1.202653e-05)	(1.885829e-04 5.331210e-01 -3.263850e-10)	(2.092000e-05 1.935583e-01 1.202685e-05)
29.9          	(2.085903e-04 7.266379e-01 1.191832e-05)	(1.873943e-04 5.330889e-01 -3.322845e-10)	(2.119596e-05 1.935490e-01 1.191865e-05)
29.925        	(2.115674e-04 7.265975e-01 1.181597e-05)	(1.900962e-04 5.330578e-01 -3.365470e-10)	(2.147112e-05 1.935397e-01 1.181631e-05)
29.95         	(2.115278e-04 7.265561e-01 1.170946e-05)	(1.897822e-04 5.330256e-01 -3.421262e-10)	(2.174562e-05 1.935305e-01 1.170981e-05)
29.975        	(2.131329e-04 7.265154e-01 1.160158e-05)	(1.911145e-04 5.329942e-01 -3.477346e-10)	(2.201843e-05 1.935212e-01 1.160193e-05)
30            	(2.146301e-04 7.264740e-01 1.149436e-05)	(1.923389e-04 5.329621e-01 -3.525230e-10)	(2.229124e-05 1.935120e-01 1.149471e-05)
30.025        	(2.138920e-04 7.264329e-01 1.137924e-05)	(1.913383e-04 5.329302e-01 -3.580068e-10)	(2.255365e-05 1.935028e-01 1.137960e-05)
30.05         	(2.162177e-04 7.263927e-01 1.126820e-05)	(1.934024e-04 5.328992e-01 -3.626366e-10)	(2.281528e-05 1.934935e-01 1.126856e-05)
30.075        	(2.161745e-04 7.263516e-01 1.115402e-05)	(1.930999e-04 5.328673e-01 -3.675829e-10)	(2.307462e-05 1.934843e-01 1.115439e-05)
30.1          	(2.181066e-04 7.263112e-01 1.104039e-05)	(1.947717e-04 5.328361e-01 -3.735362e-10)	(2.333491e-05 1.934752e-01 1.104077e-05)
30.125        	(2.193423e-04 7.262704e-01 1.092488e-05)	(1.957448e-04 5.328044e-01 -3.780345e-10)	(2.359751e-05 1.934660e-01 1.092525e-05)
30.15         	(2.185685e-04 7.262294e-01 1.080259e-05)	(1.947189e-04 5.327726e-01 -3.828703e-10)	(2.384953e-05 1.934568e-01 1.080298e-05)
30.175        	(2.210737e-04 7.261894e-01 1.068518e-05)	(1.969713e-04 5.327417e-01 -3.881542e-10)	(2.410248e-05 1.934477e-01 1.068556e-05)
30.2          	(2.207649e-04 7.261487e-01 1.056315e-05)	(1.964116e-04 5.327101e-01 -3.927045e-10)	(2.435334e-05 1.934386e-01 1.056355e-05)
30.225        	(2.222258e-04 7.261087e-01 1.044117e-05)	(1.976257e-04 5.326793e-01 -3.976531e-10)	(2.460010e-05 1.934295e-01 1.044156e-05)
30.25         	(2.237111e-04 7.260681e-01 1.032020e-05)	(1.988614e-04 5.326477e-01 -4.028979e-10)	(2.484972e-05 1.934204e-01 1.032060e-05)
30.275        	(2.223790e-04 7.260275e-01 1.018999e-05)	(1.972914e-04 5.326162e-01 -4.071292e-10)	(2.508754e-05 1.934113e-01 1.019040e-05)
30.3          	(2.248791e-04 7.259882e-01 1.006532e-05)	(1.995537e-04 5.325860e-01 -4.115299e-10)	(2.532540e-05 1.934022e-01 1.006573e-05)
30.325        	(2.246726e-04 7.259476e-01 9.936891e-06)	(1.991105e-04 5.325544e-01 -4.165346e-10)	(2.556212e-05 1.933932e-01 9.937307e-06)
30.35         	(2.259753e-04 7.259080e-01 9.807737e-06)	(2.001776e-04 5.325238e-01 -4.215050e-10)	(2.579766e-05 1.933842e-01 9.808159e-06)
30.375        	(2.271597e-04 7.258675e-01 9.678563e-06)	(2.011257e-04 5.324924e-01 -4.256478e-10)	(2.603402e-05 1.933751e-01 9.678989e-06)
30.4          	(2.259402e-04 7.258274e-01 9.542053e-06)	(1.996820e-04 5.324612e-01 -4.301635e-10)	(2.625824e-05 1.933661e-01 9.542484e-06)
30.425        	(2.282377e-04 7.257883e-01 9.410892e-06)	(2.017547e-04 5.324312e-01 -4.345490e-10)	(2.648303e-05 1.933571e-01 9.411326e-06)
30.45         	(2.277217e-04 7.257480e-01 9.275442e-06)	(2.010162e-04 5.323999e-01 -4.390410e-10)	(2.670548e-05 1.933482e-01 9.275881e-06)
30.475        	(2.289079e-04 7.257087e-01 9.139921e-06)	(2.019824e-04 5.323695e-01 -4.436955e-10)	(2.692546e-05 1.933392e-01 9.140365e-06)
30.5          	(2.299456e-04 7.256686e-01 9.004199e-06)	(2.027996e-04 5.323383e-01 -4.485514e-10)	(2.714594e-05 1.933302e-01 9.004648e-06)
30.525        	(2.284479e-04 7.256287e-01 8.861152e-06)	(2.010942e-04 5.323074e-01 -4.516505e-10)	(2.735363e-05 1.933213e-01 8.861604e-06)
30.55         	(2.307930e-04 7.255896e-01 8.723926e-06)	(2.032308e-04 5.322773e-01 -4.567234e-10)	(2.756227e-05 1.933124e-01 8.724382e-06)
30.575        	(2.300145e-04 7.255498e-01 8.582565e-06)	(2.022453e-04 5.322463e-01 -4.601044e-10)	(2.776922e-05 1.933035e-01 8.583026e-06)
30.6          	(2.312546e-04 7.255109e-01 8.441373e-06)	(2.032806e-04 5.322163e-01 -4.649863e-10)	(2.797398e-05 1.932946e-01 8.441838e-06)
30.625        	(2.313587e-04 7.254713e-01 8.297990e-06)	(2.031821e-04 5.321856e-01 -4.688758e-10)	(2.817659e-05 1.932857e-01 8.298459e-06)
30.65         	(2.324198e-04 7.254317e-01 8.154588e-06)	(2.040428e-04 5.321549e-01 -4.736551e-10)	(2.837696e-05 1.932768e-01 8.155062e-06)
30.675        	(2.308535e-04 7.253924e-01 8.004894e-06)	(2.022867e-04 5.321244e-01 -4.771758e-10)	(2.856673e-05 1.932680e-01 8.005371e-06)
30.7          	(2.329737e-04 7.253539e-01 7.861111e-06)	(2.042169e-04 5.320947e-01 -4.809652e-10)	(2.875685e-05 1.932591e-01 7.861592e-06)
30.725        	(2.320528e-04 7.253142e-01 7.712477e-06)	(2.031075e-04 5.320639e-01 -4.842386e-10)	(2.894532e-05 1.932503e-01 7.712961e-06)
30.75         	(2.331588e-04 7.252757e-01 7.564334e-06)	(2.040272e-04 5.320342e-01 -4.890885e-10)	(2.913159e-05 1.932415e-01 7.564823e-06)
30.775        	(2.340192e-04 7.252362e-01 7.416459e-06)	(2.046994e-04 5.320035e-01 -4.932084e-10)	(2.931980e-05 1.932327e-01 7.416952e-06)
30.8          	(2.319832e-04 7.251969e-01 7.260372e-06)	(2.024890e-04 5.319730e-01 -4.953489e-10)	(2.949420e-05 1.932239e-01 7.260867e-06)
30.825        	(2.337503e-04 7.251587e-01 7.110308e-06)	(2.040840e-04 5.319435e-01 -5.000240e-10)	(2.966639e-05 1.932151e-01 7.110808e-06)
30.85         	(2.332403e-04 7.251194e-01 6.957800e-06)	(2.034020e-04 5.319130e-01 -5.036128e-10)	(2.983830e-05 1.932064e-01 6.958304e-06)
30.875        	(2.338290e-04 7.250811e-01 6.804266e-06)	(2.038207e-04 5.318835e-01 -5.075983e-10)	(3.000838e-05 1.931976e-01 6.804773e-06)
30.9          	(2.338287e-04 7.250423e-01 6.649506e-06)	(2.036531e-04 5.318534e-01 -5.105179e-10)	(3.017558e-05 1.931889e-01 6.650016e-06)
30.925        	(2.344407e-04 7.250032e-01 6.494708e-06)	(2.041001e-04 5.318231e-01 -5.151925e-10)	(3.034060e-05 1.931802e-01 6.495223e-06)
30.95         	(2.329213e-04 7.249646e-01 6.334397e-06)	(2.024261e-04 5.317931e-01 -5.167058e-10)	(3.049524e-05 1.931715e-01 6.334913e-06)
30.975        	(2.344767e-04 7.249268e-01 6.178907e-06)	(2.038265e-04 5.317641e-01 -5.212215e-10)	(3.065024e-05 1.931628e-01 6.179428e-06)
31            	(2.333586e-04 7.248877e-01 6.019315e-06)	(2.025566e-04 5.317336e-01 -5.234168e-10)	(3.080198e-05 1.931541e-01 6.019839e-06)
31.025        	(2.340214e-04 7.248499e-01 5.860372e-06)	(2.030704e-04 5.317045e-01 -5.274031e-10)	(3.095097e-05 1.931454e-01 5.860900e-06)
31.05         	(2.345082e-04 7.248111e-01 5.701701e-06)	(2.034079e-04 5.316743e-01 -5.317524e-10)	(3.110032e-05 1.931368e-01 5.702233e-06)
31.075        	(2.323794e-04 7.247724e-01 5.536200e-06)	(2.011429e-04 5.316442e-01 -5.324160e-10)	(3.123646e-05 1.931281e-01 5.536733e-06)
31.1          	(2.342198e-04 7.247351e-01 5.377191e-06)	(2.028456e-04 5.316155e-01 -5.369558e-10)	(3.137417e-05 1.931195e-01 5.377728e-06)
31.125        	(2.329374e-04 7.246964e-01 5.213746e-06)	(2.014273e-04 5.315855e-01 -5.393942e-10)	(3.151004e-05 1.931109e-01 5.214286e-06)
31.15         	(2.333600e-04 7.246587e-01 5.050499e-06)	(2.017181e-04 5.315564e-01 -5.425132e-10)	(3.164192e-05 1.931023e-01 5.051042e-06)
31.175        	(2.328730e-04 7.246204e-01 4.885816e-06)	(2.011032e-04 5.315267e-01 -5.462939e-10)	(3.176981e-05 1.930937e-01 4.886362e-06)
31.2          	(2.331719e-04 7.245824e-01 4.721916e-06)	(2.012752e-04 5.314972e-01 -5.484553e-10)	(3.189671e-05 1.930852e-01 4.722464e-06)
31.225        	(2.321149e-04 7.245443e-01 4.554587e-06)	(2.000983e-04 5.314677e-01 -5.517050e-10)	(3.201661e-05 1.930766e-01 4.555139e-06)
31.25         	(2.323387e-04 7.245064e-01 4.388549e-06)	(2.002054e-04 5.314384e-01 -5.531598e-10)	(3.213328e-05 1.930681e-01 4.389102e-06)
31.275        	(2.318246e-04 7.244686e-01 4.221542e-06)	(1.995772e-04 5.314091e-01 -5.563491e-10)	(3.224742e-05 1.930595e-01 4.222098e-06)
31.3          	(2.316119e-04 7.244309e-01 4.053880e-06)	(1.992537e-04 5.313799e-01 -5.587241e-10)	(3.235820e-05 1.930510e-01 4.054439e-06)
31.325        	(2.309842e-04 7.243933e-01 3.884953e-06)	(1.985200e-04 5.313508e-01 -5.615491e-10)	(3.246423e-05 1.930425e-01 3.885514e-06)
31.35         	(2.307392e-04 7.243556e-01 3.716152e-06)	(1.981732e-04 5.313216e-01 -5.635815e-10)	(3.256603e-05 1.930340e-01 3.716716e-06)
31.375        	(2.302541e-04 7.243181e-01 3.546320e-06)	(1.975898e-04 5.312926e-01 -5.664924e-10)	(3.266433e-05 1.930255e-01 3.546886e-06)
31.4          	(2.297777e-04 7.242805e-01 3.375717e-06)	(1.970191e-04 5.312635e-01 -5.687963e-10)	(3.275853e-05 1.930171e-01 3.376285e-06)
31.425        	(2.292066e-04 7.242430e-01 3.204788e-06)	(1.963579e-04 5.312344e-01 -5.706518e-10)	(3.284867e-05 1.930086e-01 3.205358e-06)
31.45         	(2.287779e-04 7.242056e-01 3.033453e-06)	(1.958427e-04 5.312054e-01 -5.731713e-10)	(3.293524e-05 1.930002e-01 3.034026e-06)
31.475        	(2.283056e-04 7.241682e-01 2.861756e-06)	(1.952870e-04 5.311764e-01 -5.753911e-10)	(3.301861e-05 1.929917e-01 2.862331e-06)
31.5          	(2.276603e-04 7.241309e-01 2.689335e-06)	(1.945610e-04 5.311476e-01 -5.775285e-10)	(3.309927e-05 1.929833e-01 2.689913e-06)
31.525        	(2.271912e-04 7.240937e-01 2.516683e-06)	(1.940151e-04 5.311188e-01 -5.795060e-10)	(3.317614e-05 1.929749e-01 2.517262e-06)
31.55         	(2.265016e-04 7.240564e-01 2.343341e-06)	(1.932524e-04 5.310899e-01 -5.814635e-10)	(3.324918e-05 1.929665e-01 2.343922e-06)
31.575        	(2.258371e-04 7.240192e-01 2.169388e-06)	(1.925196e-04 5.310611e-01 -5.832239e-10)	(3.331756e-05 1.929581e-01 2.169971e-06)
31.6          	(2.250506e-04 7.239822e-01 1.994904e-06)	(1.916687e-04 5.310324e-01 -5.852979e-10)	(3.338188e-05 1.929498e-01 1.995489e-06)
31.625        	(2.243359e-04 7.239450e-01 1.820247e-06)	(1.908940e-04 5.310036e-01 -5.869148e-10)	(3.344186e-05 1.929414e-01 1.820834e-06)
31.65         	(2.239813e-04 7.239082e-01 1.646326e-06)	(1.904820e-04 5.309751e-01 -5.888742e-10)	(3.349930e-05 1.929331e-01 1.646915e-06)
31.675        	(2.231822e-04 7.238713e-01 1.471110e-06)	(1.896275e-04 5.309466e-01 -5.902209e-10)	(3.355476e-05 1.929248e-01 1.471700e-06)
31.7          	(2.222552e-04 7.238345e-01 1.294807e-06)	(1.886497e-04 5.309180e-01 -5.917149e-10)	(3.360548e-05 1.929164e-01 1.295398e-06)
31.725        	(2.215885e-04 7.237978e-01 1.119089e-06)	(1.879365e-04 5.308896e-01 -5.930899e-10)	(3.365195e-05 1.929081e-01 1.119682e-06)
31.75         	(2.206680e-04 7.237610e-01 9.425695e-07)	(1.869740e-04 5.308611e-01 -5.949369e-10)	(3.369399e-05 1.928999e-01 9.431644e-07)
31.775        	(2.198885e-04 7.237243e-01 7.659573e-07)	(1.861566e-04 5.308327e-01 -5.959476e-10)	(3.373197e-05 1.928916e-01 7.665533e-07)
31.8          	(2.190524e-04 7.236876e-01 5.893367e-07)	(1.852852e-04 5.308043e-01 -5.973616e-10)	(3.376717e-05 1.928833e-01 5.899341e-07)
31.825        	(2.181736e-04 7.236511e-01 4.123380e-07)	(1.843745e-04 5.307760e-01 -5.985984e-10)	(3.379908e-05 1.928751e-01 4.129366e-07)
31.85         	(2.171017e-04 7.236145e-01 2.347581e-07)	(1.832760e-04 5.307476e-01 -5.998058e-10)	(3.382568e-05 1.928668e-01 2.353579e-07)
31.875        	(2.159958e-04 7.235780e-01 5.678821e-08)	(1.821493e-04 5.307194e-01 -6.006991e-10)	(3.384656e-05 1.928586e-01 5.738891e-08)
31.9          	(2.151010e-04 7.235417e-01 -1.206490e-07)	(1.812376e-04 5.306913e-01 -6.017357e-10)	(3.386338e-05 1.928504e-01 -1.200472e-07)
31.925        	(2.140423e-04 7.235053e-01 -2.983535e-07)	(1.801655e-04 5.306631e-01 -6.028625e-10)	(3.387679e-05 1.928422e-01 -2.977507e-07)
31.95         	(2.130241e-04 7.234690e-01 -4.761693e-07)	(1.791374e-04 5.306350e-01 -6.033195e-10)	(3.388674e-05 1.928340e-01 -4.755660e-07)
31.975        	(2.119298e-04 7.234327e-01 -6.541580e-07)	(1.780371e-04 5.306069e-01 -6.040293e-10)	(3.389276e-05 1.928258e-01 -6.535539e-07)
32            	(2.108653e-04 7.233966e-01 -8.323103e-07)	(1.769704e-04 5.305790e-01 -6.049366e-10)	(3.389496e-05 1.928176e-01 -8.317053e-07)
32.025        	(2.096536e-04 7.233603e-01 -1.010795e-06)	(1.757607e-04 5.305508e-01 -6.059840e-10)	(3.389286e-05 1.928095e-01 -1.010189e-06)
32.05         	(2.086238e-04 7.233243e-01 -1.188699e-06)	(1.747368e-04 5.305229e-01 -6.065550e-10)	(3.388703e-05 1.928014e-01 -1.188092e-06)
32.075        	(2.072988e-04 7.232882e-01 -1.367207e-06)	(1.734223e-04 5.304950e-01 -6.068221e-10)	(3.387656e-05 1.927932e-01 -1.366600e-06)
32.1          	(2.064654e-04 7.232521e-01 -1.544504e-06)	(1.726008e-04 5.304670e-01 -6.075984e-10)	(3.386465e-05 1.927851e-01 -1.543897e-06)
32.125        	(2.051205e-04 7.232163e-01 -1.722631e-06)	(1.712709e-04 5.304393e-01 -6.076013e-10)	(3.384960e-05 1.927770e-01 -1.722023e-06)
32.15         	(2.040246e-04 7.231805e-01 -1.900652e-06)	(1.701940e-04 5.304116e-01 -6.081991e-10)	(3.383057e-05 1.927689e-01 -1.900043e-06)
32.175        	(2.026476e-04 7.231446e-01 -2.078919e-06)	(1.688405e-04 5.303837e-01 -6.084400e-10)	(3.380709e-05 1.927608e-01 -2.078310e-06)
32.2          	(2.014308e-04 7.231089e-01 -2.256873e-06)	(1.676516e-04 5.303561e-01 -6.085653e-10)	(3.377921e-05 1.927528e-01 -2.256264e-06)
32.225        	(2.000815e-04 7.230732e-01 -2.434710e-06)	(1.663339e-04 5.303285e-01 -6.090384e-10)	(3.374762e-05 1.927447e-01 -2.434101e-06)
32.25         	(1.987375e-04 7.230375e-01 -2.612443e-06)	(1.650260e-04 5.303008e-01 -6.086589e-10)	(3.371146e-05 1.927367e-01 -2.611834e-06)
32.275        	(1.973351e-04 7.230019e-01 -2.790105e-06)	(1.636639e-04 5.302732e-01 -6.090164e-10)	(3.367116e-05 1.927286e-01 -2.789496e-06)
32.3          	(1.958381e-04 7.229663e-01 -2.967817e-06)	(1.622122e-04 5.302457e-01 -6.084315e-10)	(3.362591e-05 1.927206e-01 -2.967209e-06)
32.325        	(1.944713e-04 7.229306e-01 -3.144776e-06)	(1.608941e-04 5.302180e-01 -6.085753e-10)	(3.357718e-05 1.927126e-01 -3.144168e-06)
32.35         	(1.931243e-04 7.228952e-01 -3.321408e-06)	(1.595993e-04 5.301906e-01 -6.084485e-10)	(3.352497e-05 1.927046e-01 -3.320800e-06)
32.375        	(1.916561e-04 7.228599e-01 -3.498161e-06)	(1.581869e-04 5.301633e-01 -6.078032e-10)	(3.346919e-05 1.926966e-01 -3.497553e-06)
32.4          	(1.899992e-04 7.228244e-01 -3.675067e-06)	(1.565906e-04 5.301357e-01 -6.077614e-10)	(3.340869e-05 1.926886e-01 -3.674459e-06)
32.425        	(1.888894e-04 7.227892e-01 -3.850365e-06)	(1.555441e-04 5.301085e-01 -6.070149e-10)	(3.334535e-05 1.926807e-01 -3.849758e-06)
32.45         	(1.871828e-04 7.227540e-01 -4.026352e-06)	(1.539038e-04 5.300813e-01 -6.065262e-10)	(3.327897e-05 1.926727e-01 -4.025745e-06)
32.475        	(1.858496e-04 7.227189e-01 -4.201666e-06)	(1.526404e-04 5.300541e-01 -6.059164e-10)	(3.320920e-05 1.926648e-01 -4.201060e-06)
32.5          	(1.840202e-04 7.226835e-01 -4.377403e-06)	(1.508860e-04 5.300267e-01 -6.053341e-10)	(3.313418e-05 1.926569e-01 -4.376797e-06)
32.525        	(1.825164e-04 7.226487e-01 -4.552295e-06)	(1.494619e-04 5.299997e-01 -6.044277e-10)	(3.305447e-05 1.926490e-01 -4.551691e-06)
32.55         	(1.808262e-04 7.226136e-01 -4.726961e-06)	(1.478556e-04 5.299725e-01 -6.037033e-10)	(3.297051e-05 1.926410e-01 -4.726357e-06)
32.575        	(1.792040e-04 7.225786e-01 -4.901119e-06)	(1.463215e-04 5.299455e-01 -6.027535e-10)	(3.288257e-05 1.926332e-01 -4.900516e-06)
32.6          	(1.775836e-04 7.225436e-01 -5.074650e-06)	(1.447923e-04 5.299183e-01 -6.019807e-10)	(3.279136e-05 1.926253e-01 -5.074048e-06)
32.625        	(1.755299e-04 7.225088e-01 -5.248787e-06)	(1.428354e-04 5.298913e-01 -6.008615e-10)	(3.269447e-05 1.926174e-01 -5.248186e-06)
32.65         	(1.742835e-04 7.224737e-01 -5.420481e-06)	(1.416888e-04 5.298642e-01 -5.999788e-10)	(3.259467e-05 1.926096e-01 -5.419881e-06)
32.675        	(1.723334e-04 7.224392e-01 -5.592829e-06)	(1.398417e-04 5.298375e-01 -5.986307e-10)	(3.249171e-05 1.926017e-01 -5.592231e-06)
32.7          	(1.706843e-04 7.224045e-01 -5.764601e-06)	(1.382993e-04 5.298106e-01 -5.975860e-10)	(3.238493e-05 1.925939e-01 -5.764003e-06)
32.725        	(1.688802e-04 7.223698e-01 -5.935740e-06)	(1.366058e-04 5.297837e-01 -5.959579e-10)	(3.227439e-05 1.925861e-01 -5.935144e-06)
32.75         	(1.670922e-04 7.223351e-01 -6.106501e-06)	(1.349323e-04 5.297569e-01 -5.944624e-10)	(3.215988e-05 1.925782e-01 -6.105906e-06)
32.775        	(1.652623e-04 7.223005e-01 -6.276735e-06)	(1.332210e-04 5.297301e-01 -5.931191e-10)	(3.204131e-05 1.925704e-01 -6.276142e-06)
32.8          	(1.634321e-04 7.222661e-01 -6.446334e-06)	(1.315136e-04 5.297034e-01 -5.919170e-10)	(3.191853e-05 1.925627e-01 -6.445742e-06)
32.825        	(1.615383e-04 7.222315e-01 -6.615194e-06)	(1.297463e-04 5.296766e-01 -5.899298e-10)	(3.179205e-05 1.925549e-01 -6.614605e-06)
32.85         	(1.596711e-04 7.221971e-01 -6.783380e-06)	(1.280094e-04 5.296500e-01 -5.883612e-10)	(3.166167e-05 1.925471e-01 -6.782791e-06)
32.875        	(1.577740e-04 7.221627e-01 -6.951019e-06)	(1.262463e-04 5.296234e-01 -5.866327e-10)	(3.152773e-05 1.925394e-01 -6.950432e-06)
32.9          	(1.558441e-04 7.221284e-01 -7.118008e-06)	(1.244540e-04 5.295968e-01 -5.847362e-10)	(3.139008e-05 1.925316e-01 -7.117424e-06)
32.925        	(1.538751e-04 7.220940e-01 -7.284224e-06)	(1.226263e-04 5.295702e-01 -5.828942e-10)	(3.124881e-05 1.925239e-01 -7.283641e-06)
32.95         	(1.520143e-04 7.220599e-01 -7.449365e-06)	(1.209099e-04 5.295437e-01 -5.812103e-10)	(3.110437e-05 1.925162e-01 -7.448784e-06)
32.975        	(1.499481e-04 7.220255e-01 -7.614155e-06)	(1.189929e-04 5.295171e-01 -5.790259e-10)	(3.095528e-05 1.925085e-01 -7.613576e-06)
33            	(1.476956e-04 7.219913e-01 -7.778909e-06)	(1.168949e-04 5.294906e-01 -5.770755e-10)	(3.080078e-05 1.925008e-01 -7.778332e-06)
33.025        	(1.458875e-04 7.219573e-01 -7.941660e-06)	(1.152447e-04 5.294642e-01 -5.748977e-10)	(3.064284e-05 1.924931e-01 -7.941085e-06)
33.05         	(1.436690e-04 7.219234e-01 -8.104374e-06)	(1.131880e-04 5.294380e-01 -5.726215e-10)	(3.048098e-05 1.924854e-01 -8.103802e-06)
33.075        	(1.418961e-04 7.218894e-01 -8.265421e-06)	(1.115796e-04 5.294116e-01 -5.699316e-10)	(3.031653e-05 1.924777e-01 -8.264851e-06)
33.1          	(1.396860e-04 7.218556e-01 -8.426280e-06)	(1.095369e-04 5.293855e-01 -5.678555e-10)	(3.014913e-05 1.924701e-01 -8.425712e-06)
33.125        	(1.376525e-04 7.218215e-01 -8.586178e-06)	(1.076745e-04 5.293591e-01 -5.653042e-10)	(2.997798e-05 1.924624e-01 -8.585613e-06)
33.15         	(1.354037e-04 7.217877e-01 -8.745414e-06)	(1.056009e-04 5.293329e-01 -5.631785e-10)	(2.980281e-05 1.924548e-01 -8.744851e-06)
33.175        	(1.333398e-04 7.217541e-01 -8.903511e-06)	(1.037166e-04 5.293069e-01 -5.601451e-10)	(2.962313e-05 1.924472e-01 -8.902951e-06)
33.2          	(1.309238e-04 7.217201e-01 -9.061432e-06)	(1.014854e-04 5.292805e-01 -5.574811e-10)	(2.943845e-05 1.924396e-01 -9.060875e-06)
33.225        	(1.289372e-04 7.216865e-01 -9.217482e-06)	(9.968666e-05 5.292545e-01 -5.549241e-10)	(2.925056e-05 1.924320e-01 -9.216927e-06)
33.25         	(1.269371e-04 7.216528e-01 -9.372035e-06)	(9.787587e-05 5.292284e-01 -5.519041e-10)	(2.906127e-05 1.924244e-01 -9.371483e-06)
33.275        	(1.246800e-04 7.216194e-01 -9.526474e-06)	(9.581090e-05 5.292026e-01 -5.489307e-10)	(2.886911e-05 1.924168e-01 -9.525925e-06)
33.3          	(1.225111e-04 7.215858e-01 -9.679846e-06)	(9.383772e-05 5.291765e-01 -5.465261e-10)	(2.867339e-05 1.924093e-01 -9.679300e-06)
33.325        	(1.202764e-04 7.215524e-01 -9.832170e-06)	(9.180242e-05 5.291507e-01 -5.431166e-10)	(2.847396e-05 1.924017e-01 -9.831627e-06)
33.35         	(1.179767e-04 7.215188e-01 -9.983714e-06)	(8.970631e-05 5.291247e-01 -5.402214e-10)	(2.827038e-05 1.923942e-01 -9.983174e-06)
33.375        	(1.157254e-04 7.214855e-01 -1.013421e-05)	(8.766279e-05 5.290989e-01 -5.370544e-10)	(2.806264e-05 1.923866e-01 -1.013368e-05)
33.4          	(1.133690e-04 7.214521e-01 -1.028358e-05)	(8.551810e-05 5.290730e-01 -5.339027e-10)	(2.785091e-05 1.923791e-01 -1.028305e-05)
33.425        	(1.111196e-04 7.214189e-01 -1.043175e-05)	(8.348369e-05 5.290473e-01 -5.305943e-10)	(2.763589e-05 1.923716e-01 -1.043122e-05)
33.45         	(1.087146e-04 7.213856e-01 -1.057902e-05)	(8.129743e-05 5.290215e-01 -5.271312e-10)	(2.741714e-05 1.923641e-01 -1.057849e-05)
33.475        	(1.064511e-04 7.213524e-01 -1.072477e-05)	(7.925586e-05 5.289958e-01 -5.240035e-10)	(2.719521e-05 1.923566e-01 -1.072424e-05)
33.5          	(1.040302e-04 7.213192e-01 -1.086969e-05)	(7.706057e-05 5.289701e-01 -5.205601e-10)	(2.696965e-05 1.923491e-01 -1.086917e-05)
33.525        	(1.016637e-04 7.212862e-01 -1.101350e-05)	(7.492347e-05 5.289445e-01 -5.170435e-10)	(2.674025e-05 1.923417e-01 -1.101299e-05)
33.55         	(9.928633e-05 7.212530e-01 -1.115594e-05)	(7.277846e-05 5.289188e-01 -5.134993e-10)	(2.650787e-05 1.923342e-01 -1.115543e-05)
33.575        	(9.690065e-05 7.212199e-01 -1.129700e-05)	(7.062762e-05 5.288931e-01 -5.098737e-10)	(2.627303e-05 1.923268e-01 -1.129649e-05)
33.6          	(9.445320e-05 7.211871e-01 -1.143714e-05)	(6.841894e-05 5.288677e-01 -5.058258e-10)	(2.603426e-05 1.923193e-01 -1.143664e-05)
33.625        	(9.211011e-05 7.211540e-01 -1.157582e-05)	(6.631752e-05 5.288421e-01 -5.021604e-10)	(2.579258e-05 1.923119e-01 -1.157532e-05)
33.65         	(8.944205e-05 7.211211e-01 -1.171390e-05)	(6.389564e-05 5.288166e-01 -4.984558e-10)	(2.554641e-05 1.923045e-01 -1.171340e-05)
33.675        	(8.714316e-05 7.210884e-01 -1.185006e-05)	(6.184659e-05 5.287913e-01 -4.945350e-10)	(2.529657e-05 1.922971e-01 -1.184957e-05)
33.7          	(8.460997e-05 7.210556e-01 -1.198508e-05)	(5.956631e-05 5.287659e-01 -4.906070e-10)	(2.504366e-05 1.922897e-01 -1.198459e-05)
33.725        	(8.215465e-05 7.210229e-01 -1.211896e-05)	(5.736701e-05 5.287406e-01 -4.864517e-10)	(2.478764e-05 1.922823e-01 -1.211847e-05)
33.75         	(7.955271e-05 7.209902e-01 -1.225177e-05)	(5.502505e-05 5.287153e-01 -4.819246e-10)	(2.452767e-05 1.922749e-01 -1.225129e-05)
33.775        	(7.705579e-05 7.209575e-01 -1.238304e-05)	(5.279155e-05 5.286899e-01 -4.783570e-10)	(2.426424e-05 1.922676e-01 -1.238256e-05)
33.8          	(7.461154e-05 7.209247e-01 -1.251218e-05)	(5.061290e-05 5.286645e-01 -4.735305e-10)	(2.399864e-05 1.922602e-01 -1.251170e-05)
33.825        	(7.222404e-05 7.208923e-01 -1.264006e-05)	(4.849224e-05 5.286394e-01 -4.697433e-10)	(2.373180e-05 1.922529e-01 -1.263959e-05)
33.85         	(6.968638e-05 7.208598e-01 -1.276712e-05)	(4.622408e-05 5.286143e-01 -4.652418e-10)	(2.346230e-05 1.922456e-01 -1.276666e-05)
33.875        	(6.692715e-05 7.208274e-01 -1.289341e-05)	(4.373920e-05 5.285891e-01 -4.605021e-10)	(2.318795e-05 1.922382e-01 -1.289295e-05)
33.9          	(6.447793e-05 7.207950e-01 -1.301747e-05)	(4.156823e-05 5.285641e-01 -4.562956e-10)	(2.290971e-05 1.922309e-01 -1.301702e-05)
33.925        	(6.182621e-05 7.207627e-01 -1.314030e-05)	(3.919755e-05 5.285390e-01 -4.517606e-10)	(2.262866e-05 1.922236e-01 -1.313985e-05)
33.95         	(5.919790e-05 7.207303e-01 -1.326193e-05)	(3.685395e-05 5.285140e-01 -4.469767e-10)	(2.234395e-05 1.922163e-01 -1.326148e-05)
33.975        	(5.658189e-05 7.206981e-01 -1.338178e-05)	(3.452563e-05 5.284890e-01 -4.425505e-10)	(2.205627e-05 1.922091e-01 -1.338134e-05)
34            	(5.383965e-05 7.206657e-01 -1.350024e-05)	(3.207451e-05 5.284639e-01 -4.375800e-10)	(2.176514e-05 1.922018e-01 -1.349980e-05)
34.025        	(5.148003e-05 7.206334e-01 -1.361647e-05)	(3.000791e-05 5.284389e-01 -4.329030e-10)	(2.147212e-05 1.921945e-01 -1.361603e-05)
34.05         	(4.866841e-05 7.206014e-01 -1.373194e-05)	(2.749187e-05 5.284142e-01 -4.280230e-10)	(2.117654e-05 1.921873e-01 -1.373151e-05)
34.075        	(4.598313e-05 7.205692e-01 -1.384627e-05)	(2.510564e-05 5.283892e-01 -4.232638e-10)	(2.087749e-05 1.921801e-01 -1.384585e-05)
34.1          	(4.363882e-05 7.205371e-01 -1.395769e-05)	(2.306231e-05 5.283643e-01 -4.184072e-10)	(2.057650e-05 1.921728e-01 -1.395727e-05)
34.125        	(4.079188e-05 7.205054e-01 -1.406873e-05)	(2.051901e-05 5.283397e-01 -4.132199e-10)	(2.027287e-05 1.921656e-01 -1.406831e-05)
34.15         	(3.825941e-05 7.204734e-01 -1.417781e-05)	(1.829310e-05 5.283150e-01 -4.082905e-10)	(1.996631e-05 1.921584e-01 -1.417740e-05)
34.175        	(3.543625e-05 7.204414e-01 -1.428552e-05)	(1.577931e-05 5.282902e-01 -4.030556e-10)	(1.965694e-05 1.921512e-01 -1.428511e-05)
34.2          	(3.283427e-05 7.204096e-01 -1.439142e-05)	(1.348982e-05 5.282656e-01 -3.977323e-10)	(1.934445e-05 1.921440e-01 -1.439102e-05)
34.225        	(3.012712e-05 7.203777e-01 -1.449592e-05)	(1.109794e-05 5.282409e-01 -3.928647e-10)	(1.902918e-05 1.921368e-01 -1.449553e-05)
34.25         	(2.749313e-05 7.203459e-01 -1.459843e-05)	(8.781461e-06 5.282163e-01 -3.870384e-10)	(1.871167e-05 1.921297e-01 -1.459804e-05)
34.275        	(2.462719e-05 7.203142e-01 -1.469998e-05)	(6.235486e-06 5.281916e-01 -3.819914e-10)	(1.839170e-05 1.921225e-01 -1.469960e-05)
34.3          	(2.189682e-05 7.202824e-01 -1.479944e-05)	(3.829069e-06 5.281671e-01 -3.764799e-10)	(1.806775e-05 1.921154e-01 -1.479907e-05)
34.325        	(1.908955e-05 7.202507e-01 -1.489724e-05)	(1.349897e-06 5.281425e-01 -3.709701e-10)	(1.773966e-05 1.921082e-01 -1.489687e-05)