# Force       
# CofR        : (0.000000e+00 0.000000e+00 0.000000e+00)
#
# Time        	(total_x total_y total_z)	(pressure_x pressure_y pressure_z)	(viscous_x viscous_y viscous_z)
0.025         	(3.176425e+02 8.204568e-02 -3.710736e-17)	(3.140330e+02 7.836632e-02 -5.205077e-17)	(3.609531e+00 3.679360e-03 1.494341e-17)
0.05          	(-1.133044e+02 -5.421507e-02 9.976723e-18)	(-1.170781e+02 -5.090995e-02 1.273908e-17)	(3.773608e+00 -3.305122e-03 -2.762356e-18)
0.075         	(8.392521e+01 -1.752277e-01 -6.723551e-18)	(8.074577e+01 -1.717148e-01 -8.501466e-18)	(3.179442e+00 -3.512901e-03 1.777914e-18)
0.1           	(-3.315582e+01 9.364810e-02 4.373365e-18)	(-3.567135e+01 9.694575e-02 5.973565e-18)	(2.515537e+00 -3.297647e-03 -1.600200e-18)
0.125         	(1.408560e+01 -7.689850e-03 -2.392388e-19)	(1.206327e+01 -5.577084e-03 -3.066332e-19)	(2.022324e+00 -2.112766e-03 6.739441e-20)
0.15          	(-1.193431e+01 2.717075e-02 1.901422e-18)	(-1.361841e+01 2.788125e-02 2.516896e-18)	(1.684094e+00 -7.104984e-04 -6.154743e-19)
0.175         	(2.082156e+00 1.675639e-02 4.349762e-19)	(6.197325e-01 1.688548e-02 5.727118e-19)	(1.462423e+00 -1.290879e-04 -1.377356e-19)
0.2           	(-3.437652e+00 9.299367e-03 8.178480e-19)	(-4.754827e+00 9.125698e-03 1.066089e-18)	(1.317175e+00 1.736686e-04 -2.482411e-19)
0.225         	(8.225249e-01 2.250836e-02 3.440027e-19)	(-3.948628e-01 2.216390e-02 4.493826e-19)	(1.217388e+00 3.444586e-04 -1.053799e-19)
0.25          	(-8.425945e-02 1.737863e-02 3.814783e-19)	(-1.229868e+00 1.689553e-02 4.972686e-19)	(1.145609e+00 4.831031e-04 -1.157903e-19)
0.275         	(1.149906e+00 1.683084e-02 2.252028e-19)	(5.927560e-02 1.625100e-02 2.938404e-19)	(1.090631e+00 5.798376e-04 -6.863757e-20)
0.3           	(1.069348e+00 1.156398e-02 2.085726e-19)	(2.338145e-02 1.094305e-02 2.719203e-19)	(1.045966e+00 6.209225e-04 -6.334764e-20)
0.325         	(1.428744e+00 1.133307e-02 1.503779e-19)	(4.205072e-01 1.071412e-02 1.960678e-19)	(1.008237e+00 6.189547e-04 -4.568988e-20)
0.35          	(1.441215e+00 5.889351e-03 1.314539e-19)	(4.658600e-01 5.282819e-03 1.712120e-19)	(9.753552e-01 6.065318e-04 -3.975809e-20)
0.375         	(1.556261e+00 5.688018e-03 1.052618e-19)	(6.101130e-01 5.116210e-03 1.369919e-19)	(9.461485e-01 5.718080e-04 -3.173010e-20)
0.4           	(1.582188e+00 2.459002e-03 9.101343e-20)	(6.623714e-01 1.950523e-03 1.182677e-19)	(9.198171e-01 5.084792e-04 -2.725429e-20)
0.425         	(1.624854e+00 1.571266e-03 7.700380e-20)	(7.289572e-01 1.132299e-03 9.995942e-20)	(8.958965e-01 4.389670e-04 -2.295561e-20)
0.45          	(1.620360e+00 8.535852e-04 6.723915e-20)	(7.462441e-01 4.802888e-04 8.710168e-20)	(8.741162e-01 3.732963e-04 -1.986253e-20)
0.475         	(1.630035e+00 8.198962e-04 5.875994e-20)	(7.758619e-01 4.970084e-04 7.598569e-20)	(8.541735e-01 3.228878e-04 -1.722575e-20)
0.5           	(1.630170e+00 1.089257e-04 5.204904e-20)	(7.943416e-01 -1.715015e-04 6.717740e-20)	(8.358289e-01 2.804272e-04 -1.512836e-20)
0.525         	(1.633003e+00 2.084214e-04 4.616812e-20)	(8.141066e-01 -3.718539e-05 5.946790e-20)	(8.188960e-01 2.456068e-04 -1.329978e-20)
0.55          	(1.632031e+00 -3.514832e-04 4.140348e-20)	(8.288122e-01 -5.658522e-04 5.321823e-20)	(8.032185e-01 2.143690e-04 -1.181475e-20)
0.575         	(1.631288e+00 -2.212339e-04 3.728675e-20)	(8.426290e-01 -4.093063e-04 4.782841e-20)	(7.886591e-01 1.880724e-04 -1.054166e-20)
0.6           	(1.629436e+00 -1.611105e-04 3.388991e-20)	(8.543334e-01 -3.284140e-04 4.338423e-20)	(7.751031e-01 1.673035e-04 -9.494322e-21)
0.625         	(1.628103e+00 -4.888976e-05 3.095439e-20)	(8.656515e-01 -2.005203e-04 3.955116e-20)	(7.624513e-01 1.516305e-04 -8.596769e-21)
0.65          	(1.626207e+00 -1.215784e-04 2.847477e-20)	(8.755900e-01 -2.608653e-04 3.631152e-20)	(7.506168e-01 1.392869e-04 -7.836750e-21)
0.675         	(1.624583e+00 -1.329314e-04 2.635879e-20)	(8.850631e-01 -2.612897e-04 3.354834e-20)	(7.395204e-01 1.283583e-04 -7.189545e-21)
0.7           	(1.623136e+00 -1.266064e-04 2.451186e-20)	(8.940400e-01 -2.458418e-04 3.114302e-20)	(7.290958e-01 1.192355e-04 -6.631157e-21)
0.725         	(1.621825e+00 -1.323269e-04 2.288484e-20)	(9.025412e-01 -2.440116e-04 2.902420e-20)	(7.192840e-01 1.116847e-04 -6.139362e-21)
0.75          	(1.620612e+00 -1.532074e-04 2.147583e-20)	(9.105797e-01 -2.588163e-04 2.719681e-20)	(7.100327e-01 1.056088e-04 -5.720987e-21)
0.775         	(1.619706e+00 -7.349992e-05 2.023071e-20)	(9.184114e-01 -1.737047e-04 2.558125e-20)	(7.012944e-01 1.002048e-04 -5.350544e-21)
0.8           	(1.619055e+00 -1.039555e-04 1.915211e-20)	(9.260269e-01 -1.992206e-04 2.417686e-20)	(6.930284e-01 9.526517e-05 -5.024747e-21)
0.825         	(1.618634e+00 -6.868649e-05 1.820366e-20)	(9.334353e-01 -1.592952e-04 2.295203e-20)	(6.851989e-01 9.060874e-05 -4.748371e-21)
0.85          	(1.618491e+00 -1.143424e-04 1.736582e-20)	(9.407173e-01 -2.010725e-04 2.187715e-20)	(6.777735e-01 8.673010e-05 -4.511330e-21)
0.875         	(1.618494e+00 -1.203067e-04 1.661577e-20)	(9.477731e-01 -2.035715e-04 2.090938e-20)	(6.707210e-01 8.326486e-05 -4.293603e-21)
0.9           	(1.618889e+00 -1.567133e-04 1.596428e-20)	(9.548738e-01 -2.368668e-04 2.005863e-20)	(6.640155e-01 8.015349e-05 -4.094344e-21)
0.925         	(1.619453e+00 -1.289249e-04 1.537087e-20)	(9.618198e-01 -2.064951e-04 1.928793e-20)	(6.576330e-01 7.757013e-05 -3.917056e-21)
0.95          	(1.620137e+00 -1.266633e-04 1.485106e-20)	(9.685854e-01 -2.020821e-04 1.862328e-20)	(6.515519e-01 7.541884e-05 -3.772219e-21)
0.975         	(1.621135e+00 -1.206775e-04 1.436255e-20)	(9.753841e-01 -1.940808e-04 1.799839e-20)	(6.457509e-01 7.340336e-05 -3.635839e-21)
1             	(1.622132e+00 -1.301603e-04 1.395798e-20)	(9.819199e-01 -2.015681e-04 1.748339e-20)	(6.402120e-01 7.140781e-05 -3.525413e-21)
1.025         	(1.623498e+00 -1.041651e-04 1.357109e-20)	(9.885794e-01 -1.740256e-04 1.698982e-20)	(6.349185e-01 6.986051e-05 -3.418727e-21)
1.05          	(1.624950e+00 -1.148797e-04 1.324175e-20)	(9.950931e-01 -1.836402e-04 1.657379e-20)	(6.298569e-01 6.876048e-05 -3.332040e-21)
1.075         	(1.626573e+00 -1.013199e-04 1.293443e-20)	(1.001561e+00 -1.690801e-04 1.618461e-20)	(6.250121e-01 6.776025e-05 -3.250173e-21)
1.1           	(1.628271e+00 -6.870337e-05 1.266142e-20)	(1.007900e+00 -1.357515e-04 1.584013e-20)	(6.203709e-01 6.704812e-05 -3.178715e-21)
1.125         	(1.630237e+00 -6.363579e-05 1.241128e-20)	(1.014315e+00 -1.301580e-04 1.552539e-20)	(6.159219e-01 6.652220e-05 -3.114112e-21)
1.15          	(1.632245e+00 -5.657601e-05 1.217896e-20)	(1.020590e+00 -1.225189e-04 1.523387e-20)	(6.116548e-01 6.594286e-05 -3.054911e-21)
1.175         	(1.634473e+00 -5.833153e-05 1.196697e-20)	(1.026914e+00 -1.236384e-04 1.496742e-20)	(6.075594e-01 6.530685e-05 -3.000449e-21)
1.2           	(1.636817e+00 -6.775499e-05 1.177616e-20)	(1.033192e+00 -1.323418e-04 1.472938e-20)	(6.036258e-01 6.458685e-05 -2.953215e-21)
1.225         	(1.639288e+00 -5.748068e-05 1.160284e-20)	(1.039442e+00 -1.213475e-04 1.451332e-20)	(5.998461e-01 6.386687e-05 -2.910477e-21)
1.25          	(1.641864e+00 -7.441776e-05 1.144427e-20)	(1.045652e+00 -1.376623e-04 1.431566e-20)	(5.962123e-01 6.324455e-05 -2.871385e-21)
1.275         	(1.644382e+00 -4.659201e-05 1.130013e-20)	(1.051666e+00 -1.092729e-04 1.413706e-20)	(5.927156e-01 6.268087e-05 -2.836933e-21)
1.3           	(1.647148e+00 -4.772246e-05 1.116778e-20)	(1.057798e+00 -1.099826e-04 1.397309e-20)	(5.893501e-01 6.226013e-05 -2.805314e-21)
1.325         	(1.649903e+00 -3.863319e-05 1.104727e-20)	(1.063793e+00 -1.004110e-04 1.382435e-20)	(5.861098e-01 6.177784e-05 -2.777075e-21)
1.35          	(1.652760e+00 -3.328721e-05 1.093740e-20)	(1.069772e+00 -9.458974e-05 1.368912e-20)	(5.829881e-01 6.130253e-05 -2.751714e-21)
1.375         	(1.655644e+00 -1.855926e-05 1.083704e-20)	(1.075665e+00 -7.949985e-05 1.356571e-20)	(5.799790e-01 6.094059e-05 -2.728662e-21)
1.4           	(1.658567e+00 -1.093873e-05 1.074115e-20)	(1.081490e+00 -7.160261e-05 1.344781e-20)	(5.770774e-01 6.066389e-05 -2.706655e-21)
1.425         	(1.661553e+00 -5.883230e-06 1.065574e-20)	(1.087275e+00 -6.635742e-05 1.334303e-20)	(5.742781e-01 6.047419e-05 -2.687289e-21)
1.45          	(1.664567e+00 6.628117e-07 1.057403e-20)	(1.092990e+00 -5.964012e-05 1.324285e-20)	(5.715766e-01 6.030294e-05 -2.668822e-21)
1.475         	(1.667657e+00 8.212449e-07 1.049966e-20)	(1.098688e+00 -5.943586e-05 1.315171e-20)	(5.689689e-01 6.025710e-05 -2.652049e-21)
1.5           	(1.670764e+00 -1.128872e-06 1.043144e-20)	(1.104313e+00 -6.140325e-05 1.306813e-20)	(5.664510e-01 6.027438e-05 -2.636685e-21)
1.525         	(1.673944e+00 7.833147e-06 1.036683e-20)	(1.109926e+00 -5.245946e-05 1.298904e-20)	(5.640181e-01 6.029261e-05 -2.622204e-21)
1.55          	(1.677102e+00 1.426669e-05 1.030932e-20)	(1.115435e+00 -4.607300e-05 1.291876e-20)	(5.616661e-01 6.033969e-05 -2.609442e-21)
1.575         	(1.680295e+00 2.245245e-05 1.025464e-20)	(1.120903e+00 -3.797655e-05 1.285196e-20)	(5.593913e-01 6.042900e-05 -2.597320e-21)
1.6           	(1.683505e+00 2.931257e-05 1.020350e-20)	(1.126314e+00 -3.127255e-05 1.278930e-20)	(5.571903e-01 6.058512e-05 -2.585807e-21)
1.625         	(1.686713e+00 4.021469e-05 1.015586e-20)	(1.131653e+00 -2.055543e-05 1.273089e-20)	(5.550602e-01 6.077013e-05 -2.575034e-21)
1.65          	(1.689936e+00 4.809755e-05 1.011068e-20)	(1.136938e+00 -1.288722e-05 1.267549e-20)	(5.529981e-01 6.098476e-05 -2.564802e-21)
1.675         	(1.693144e+00 6.129712e-05 1.006738e-20)	(1.142143e+00 1.815269e-08 1.262207e-20)	(5.510015e-01 6.127897e-05 -2.554694e-21)
1.7           	(1.696353e+00 6.238564e-05 1.002740e-20)	(1.147286e+00 8.084802e-07 1.257248e-20)	(5.490674e-01 6.157715e-05 -2.545083e-21)
1.725         	(1.699553e+00 7.799818e-05 9.990336e-21)	(1.152360e+00 1.609998e-05 1.252500e-20)	(5.471931e-01 6.189820e-05 -2.534662e-21)
1.75          	(1.702756e+00 7.649395e-05 9.954811e-21)	(1.157380e+00 1.428899e-05 1.248060e-20)	(5.453761e-01 6.220496e-05 -2.525788e-21)
1.775         	(1.705930e+00 8.583241e-05 9.920642e-21)	(1.162316e+00 2.333686e-05 1.243815e-20)	(5.436144e-01 6.249555e-05 -2.517510e-21)
1.8           	(1.709078e+00 8.284023e-05 9.888276e-21)	(1.167172e+00 2.009399e-05 1.239828e-20)	(5.419056e-01 6.274624e-05 -2.510007e-21)
1.825         	(1.712201e+00 8.977865e-05 9.857834e-21)	(1.171954e+00 2.682130e-05 1.235949e-20)	(5.402477e-01 6.295736e-05 -2.501653e-21)
1.85          	(1.715309e+00 9.226431e-05 9.829993e-21)	(1.176671e+00 2.912005e-05 1.232268e-20)	(5.386386e-01 6.314426e-05 -2.492690e-21)
1.875         	(1.718393e+00 9.258744e-05 9.803585e-21)	(1.181317e+00 2.927494e-05 1.228760e-20)	(5.370763e-01 6.331250e-05 -2.484018e-21)
1.9           	(1.721438e+00 9.503653e-05 9.777732e-21)	(1.185878e+00 3.156981e-05 1.225384e-20)	(5.355592e-01 6.346672e-05 -2.476108e-21)
1.925         	(1.724456e+00 9.907955e-05 9.752765e-21)	(1.190370e+00 3.545707e-05 1.222098e-20)	(5.340853e-01 6.362249e-05 -2.468218e-21)
1.95          	(1.727442e+00 1.009023e-04 9.729180e-21)	(1.194789e+00 3.711179e-05 1.218960e-20)	(5.326530e-01 6.379055e-05 -2.460417e-21)
1.975         	(1.730385e+00 1.033116e-04 9.706768e-21)	(1.199124e+00 3.936538e-05 1.215951e-20)	(5.312608e-01 6.394620e-05 -2.452739e-21)
2             	(1.733303e+00 1.069753e-04 9.684770e-21)	(1.203396e+00 4.288506e-05 1.212975e-20)	(5.299073e-01 6.409020e-05 -2.444976e-21)
2.025         	(1.736161e+00 1.105844e-04 9.661342e-21)	(1.207570e+00 4.637059e-05 1.210070e-20)	(5.285905e-01 6.421380e-05 -2.439355e-21)
2.05          	(1.738979e+00 1.119973e-04 9.637695e-21)	(1.211670e+00 4.767203e-05 1.207388e-20)	(5.273090e-01 6.432526e-05 -2.436182e-21)
2.075         	(1.741752e+00 1.175075e-04 9.617936e-21)	(1.215690e+00 5.301971e-05 1.204696e-20)	(5.260620e-01 6.448781e-05 -2.429029e-21)
2.1           	(1.744482e+00 1.176876e-04 9.600040e-21)	(1.219634e+00 5.304556e-05 1.202137e-20)	(5.248482e-01 6.464200e-05 -2.421330e-21)
2.125         	(1.747167e+00 1.213454e-04 9.582783e-21)	(1.223500e+00 5.656163e-05 1.199639e-20)	(5.236662e-01 6.478375e-05 -2.413606e-21)
2.15          	(1.749820e+00 1.258440e-04 9.565648e-21)	(1.227305e+00 6.093969e-05 1.197144e-20)	(5.225144e-01 6.490432e-05 -2.405796e-21)
2.175         	(1.752372e+00 1.208299e-04 9.550401e-21)	(1.230980e+00 5.581445e-05 1.194855e-20)	(5.213913e-01 6.501546e-05 -2.398153e-21)
2.2           	(1.754943e+00 1.261768e-04 9.533823e-21)	(1.234647e+00 6.105305e-05 1.192401e-20)	(5.202966e-01 6.512375e-05 -2.390184e-21)
2.225         	(1.757413e+00 1.234704e-04 9.518982e-21)	(1.238183e+00 5.830655e-05 1.190124e-20)	(5.192299e-01 6.516387e-05 -2.382255e-21)
2.25          	(1.759855e+00 1.292874e-04 9.504323e-21)	(1.241665e+00 6.406695e-05 1.187861e-20)	(5.181899e-01 6.522043e-05 -2.374288e-21)
2.275         	(1.762235e+00 1.263381e-04 9.490147e-21)	(1.245060e+00 6.107251e-05 1.185641e-20)	(5.171753e-01 6.526563e-05 -2.366262e-21)
2.3           	(1.764536e+00 1.254258e-04 9.476775e-21)	(1.248350e+00 6.016557e-05 1.183484e-20)	(5.161854e-01 6.526021e-05 -2.358069e-21)
2.325         	(1.766852e+00 1.303166e-04 9.463038e-21)	(1.251632e+00 6.506043e-05 1.181277e-20)	(5.152193e-01 6.525622e-05 -2.349736e-21)
2.35          	(1.769062e+00 1.288942e-04 9.450172e-21)	(1.254786e+00 6.364042e-05 1.179187e-20)	(5.142757e-01 6.525380e-05 -2.341695e-21)
2.375         	(1.771235e+00 1.291223e-04 9.437495e-21)	(1.257882e+00 6.386597e-05 1.177097e-20)	(5.133536e-01 6.525635e-05 -2.333472e-21)
2.4           	(1.773332e+00 1.301600e-04 9.425277e-21)	(1.260879e+00 6.490534e-05 1.175045e-20)	(5.124525e-01 6.525463e-05 -2.325177e-21)
2.425         	(1.775402e+00 1.307962e-04 9.412885e-21)	(1.263830e+00 6.552556e-05 1.172989e-20)	(5.115719e-01 6.527065e-05 -2.317006e-21)
2.45          	(1.777401e+00 1.311898e-04 9.401348e-21)	(1.266690e+00 6.590852e-05 1.171003e-20)	(5.107111e-01 6.528123e-05 -2.308682e-21)
2.475         	(1.779349e+00 1.320515e-04 9.389786e-21)	(1.269480e+00 6.676159e-05 1.169002e-20)	(5.098695e-01 6.528993e-05 -2.300233e-21)
2.5           	(1.781233e+00 1.301481e-04 9.378687e-21)	(1.272187e+00 6.487348e-05 1.167043e-20)	(5.090464e-01 6.527459e-05 -2.291747e-21)
2.525         	(1.783074e+00 1.308475e-04 9.367743e-21)	(1.274833e+00 6.560026e-05 1.165097e-20)	(5.082409e-01 6.524727e-05 -2.283231e-21)
2.55          	(1.784851e+00 1.286858e-04 9.357124e-21)	(1.277399e+00 6.346892e-05 1.163180e-20)	(5.074525e-01 6.521689e-05 -2.274674e-21)
2.575         	(1.786580e+00 1.276835e-04 9.346589e-21)	(1.279899e+00 6.251033e-05 1.161269e-20)	(5.066805e-01 6.517321e-05 -2.266101e-21)
2.6           	(1.788259e+00 1.247051e-04 9.336243e-21)	(1.282335e+00 5.959400e-05 1.159389e-20)	(5.059247e-01 6.511110e-05 -2.257647e-21)
2.625         	(1.789892e+00 1.194572e-04 9.326462e-21)	(1.284708e+00 5.442312e-05 1.157554e-20)	(5.051847e-01 6.503411e-05 -2.249077e-21)
2.65          	(1.791501e+00 1.099820e-04 9.316975e-21)	(1.287040e+00 4.502843e-05 1.155752e-20)	(5.044607e-01 6.495359e-05 -2.240541e-21)
2.675         	(1.792777e+00 1.368932e-04 9.305743e-21)	(1.289032e+00 7.221544e-05 1.153681e-20)	(5.037453e-01 6.467772e-05 -2.231070e-21)
2.7           	(1.794264e+00 1.340556e-04 9.296115e-21)	(1.291222e+00 6.964770e-05 1.151856e-20)	(5.030416e-01 6.440787e-05 -2.222448e-21)
2.725         	(1.795622e+00 1.322859e-04 9.286410e-21)	(1.293269e+00 6.807937e-05 1.150009e-20)	(5.023523e-01 6.420648e-05 -2.213676e-21)
2.75          	(1.796799e+00 1.619255e-04 9.275496e-21)	(1.295127e+00 9.792486e-05 1.147977e-20)	(5.016721e-01 6.400060e-05 -2.204273e-21)
2.775         	(1.798153e+00 1.511065e-04 9.266628e-21)	(1.297147e+00 8.716447e-05 1.146241e-20)	(5.010054e-01 6.394204e-05 -2.195785e-21)
2.8           	(1.799379e+00 1.495407e-04 9.257341e-21)	(1.299026e+00 8.560404e-05 1.144443e-20)	(5.003533e-01 6.393667e-05 -2.187091e-21)
2.825         	(1.800559e+00 1.474673e-04 9.248201e-21)	(1.300846e+00 8.355988e-05 1.142654e-20)	(4.997138e-01 6.390747e-05 -2.178339e-21)
2.85          	(1.801703e+00 1.494436e-04 9.239138e-21)	(1.302617e+00 8.556735e-05 1.140870e-20)	(4.990862e-01 6.387625e-05 -2.169565e-21)
2.875         	(1.802756e+00 1.455551e-04 9.230092e-21)	(1.304286e+00 8.174657e-05 1.139083e-20)	(4.984697e-01 6.380849e-05 -2.160739e-21)
2.9           	(1.803791e+00 1.460096e-04 9.221149e-21)	(1.305927e+00 8.227039e-05 1.137310e-20)	(4.978637e-01 6.373925e-05 -2.151952e-21)
2.925         	(1.804752e+00 1.459271e-04 9.212164e-21)	(1.307484e+00 8.225560e-05 1.135527e-20)	(4.972677e-01 6.367150e-05 -2.143102e-21)
2.95          	(1.805678e+00 1.452555e-04 9.203307e-21)	(1.308996e+00 8.166732e-05 1.133759e-20)	(4.966814e-01 6.358814e-05 -2.134288e-21)
2.975         	(1.806541e+00 1.447879e-04 9.194486e-21)	(1.310437e+00 8.129847e-05 1.131992e-20)	(4.961044e-01 6.348945e-05 -2.125433e-21)
3             	(1.807363e+00 1.429830e-04 9.185810e-21)	(1.311827e+00 7.962130e-05 1.130241e-20)	(4.955366e-01 6.336172e-05 -2.116602e-21)
3.025         	(1.808135e+00 1.450307e-04 9.177099e-21)	(1.313158e+00 8.177695e-05 1.128490e-20)	(4.949774e-01 6.325376e-05 -2.107801e-21)
3.05          	(1.808856e+00 1.408703e-04 9.168276e-21)	(1.314430e+00 7.774213e-05 1.126717e-20)	(4.944267e-01 6.312817e-05 -2.098897e-21)
3.075         	(1.809541e+00 1.414494e-04 9.160232e-21)	(1.315657e+00 7.845879e-05 1.125040e-20)	(4.938841e-01 6.299063e-05 -2.090167e-21)
3.1           	(1.810151e+00 1.473729e-04 9.150547e-21)	(1.316802e+00 8.447489e-05 1.123174e-20)	(4.933495e-01 6.289805e-05 -2.081198e-21)
3.125         	(1.810718e+00 1.389746e-04 9.142988e-21)	(1.317896e+00 7.618943e-05 1.121557e-20)	(4.928225e-01 6.278522e-05 -2.072581e-21)
3.15          	(1.811276e+00 1.408182e-04 9.133915e-21)	(1.318974e+00 7.821075e-05 1.119767e-20)	(4.923025e-01 6.260750e-05 -2.063754e-21)
3.175         	(1.811764e+00 1.394606e-04 9.125607e-21)	(1.319974e+00 7.703240e-05 1.118067e-20)	(4.917896e-01 6.242816e-05 -2.055063e-21)
3.2           	(1.812222e+00 1.381162e-04 9.116911e-21)	(1.320938e+00 7.585038e-05 1.116325e-20)	(4.912835e-01 6.226583e-05 -2.046343e-21)
3.225         	(1.812624e+00 1.398313e-04 9.108524e-21)	(1.321840e+00 7.771375e-05 1.114619e-20)	(4.907842e-01 6.211756e-05 -2.037670e-21)
3.25          	(1.812992e+00 1.366520e-04 9.100109e-21)	(1.322701e+00 7.470631e-05 1.112914e-20)	(4.902913e-01 6.194569e-05 -2.029030e-21)
3.275         	(1.813315e+00 1.367646e-04 9.091645e-21)	(1.323510e+00 7.498208e-05 1.111205e-20)	(4.898047e-01 6.178249e-05 -2.020404e-21)
3.3           	(1.813599e+00 1.353444e-04 9.083139e-21)	(1.324275e+00 7.373872e-05 1.109494e-20)	(4.893242e-01 6.160568e-05 -2.011805e-21)
3.325         	(1.813841e+00 1.340652e-04 9.074733e-21)	(1.324992e+00 7.263682e-05 1.107798e-20)	(4.888495e-01 6.142837e-05 -2.003250e-21)
3.35          	(1.814037e+00 1.333579e-04 9.066266e-21)	(1.325657e+00 7.211366e-05 1.106096e-20)	(4.883802e-01 6.124427e-05 -1.994690e-21)
3.375         	(1.814210e+00 1.318146e-04 9.057866e-21)	(1.326293e+00 7.076909e-05 1.104409e-20)	(4.879165e-01 6.104554e-05 -1.986228e-21)
3.4           	(1.814335e+00 1.308248e-04 9.049442e-21)	(1.326877e+00 6.998608e-05 1.102721e-20)	(4.874582e-01 6.083874e-05 -1.977772e-21)
3.425         	(1.814430e+00 1.292443e-04 9.041049e-21)	(1.327425e+00 6.861167e-05 1.101042e-20)	(4.870050e-01 6.063259e-05 -1.969371e-21)
3.45          	(1.814483e+00 1.284722e-04 9.032606e-21)	(1.327926e+00 6.804988e-05 1.099360e-20)	(4.865567e-01 6.042230e-05 -1.960999e-21)
3.475         	(1.814506e+00 1.270533e-04 9.024180e-21)	(1.328393e+00 6.684305e-05 1.097687e-20)	(4.861133e-01 6.021026e-05 -1.952689e-21)
3.5           	(1.814491e+00 1.247727e-04 9.015831e-21)	(1.328817e+00 6.478397e-05 1.096025e-20)	(4.856746e-01 5.998877e-05 -1.944419e-21)
3.525         	(1.814445e+00 1.240178e-04 9.007382e-21)	(1.329205e+00 6.423818e-05 1.094356e-20)	(4.852403e-01 5.977965e-05 -1.936174e-21)
3.55          	(1.814362e+00 1.223020e-04 8.998982e-21)	(1.329552e+00 6.274537e-05 1.092697e-20)	(4.848105e-01 5.955659e-05 -1.927986e-21)
3.575         	(1.814248e+00 1.210677e-04 8.990547e-21)	(1.329863e+00 6.176377e-05 1.091038e-20)	(4.843849e-01 5.930389e-05 -1.919835e-21)
3.6           	(1.814099e+00 1.197901e-04 8.982108e-21)	(1.330136e+00 6.073183e-05 1.089382e-20)	(4.839634e-01 5.905823e-05 -1.911707e-21)
3.625         	(1.813917e+00 1.209923e-04 8.973511e-21)	(1.330371e+00 6.217505e-05 1.087713e-20)	(4.835459e-01 5.881723e-05 -1.903623e-21)
3.65          	(1.813718e+00 1.098571e-04 8.965705e-21)	(1.330586e+00 5.132705e-05 1.086139e-20)	(4.831323e-01 5.853008e-05 -1.895687e-21)
3.675         	(1.813493e+00 1.111570e-04 8.957141e-21)	(1.330771e+00 5.294188e-05 1.084486e-20)	(4.827226e-01 5.821510e-05 -1.887715e-21)
3.7           	(1.813228e+00 1.163169e-04 8.948007e-21)	(1.330911e+00 5.834980e-05 1.082773e-20)	(4.823165e-01 5.796714e-05 -1.879722e-21)
3.725         	(1.812934e+00 1.102730e-04 8.939910e-21)	(1.331020e+00 5.254990e-05 1.081181e-20)	(4.819141e-01 5.772312e-05 -1.871901e-21)
3.75          	(1.812613e+00 1.100667e-04 8.931333e-21)	(1.331098e+00 5.261492e-05 1.079540e-20)	(4.815151e-01 5.745180e-05 -1.864070e-21)
3.775         	(1.812261e+00 1.063164e-04 8.922973e-21)	(1.331141e+00 4.915220e-05 1.077927e-20)	(4.811194e-01 5.716417e-05 -1.856301e-21)
3.8           	(1.811896e+00 1.048437e-04 8.914424e-21)	(1.331169e+00 4.798164e-05 1.076303e-20)	(4.807272e-01 5.686202e-05 -1.848606e-21)
3.825         	(1.811497e+00 1.037579e-04 8.906023e-21)	(1.331159e+00 4.719433e-05 1.074698e-20)	(4.803380e-01 5.656361e-05 -1.840957e-21)
3.85          	(1.811078e+00 9.998531e-05 8.897490e-21)	(1.331126e+00 4.373225e-05 1.073083e-20)	(4.799520e-01 5.625305e-05 -1.833338e-21)
3.875         	(1.810635e+00 9.961886e-05 8.889016e-21)	(1.331066e+00 4.367981e-05 1.071482e-20)	(4.795690e-01 5.593905e-05 -1.825801e-21)
3.9           	(1.810169e+00 9.640409e-05 8.880542e-21)	(1.330980e+00 4.078690e-05 1.069885e-20)	(4.791890e-01 5.561719e-05 -1.818308e-21)
3.925         	(1.809675e+00 9.524953e-05 8.872003e-21)	(1.330863e+00 3.995848e-05 1.068285e-20)	(4.788117e-01 5.529105e-05 -1.810842e-21)
3.95          	(1.809163e+00 9.139471e-05 8.863597e-21)	(1.330726e+00 3.645689e-05 1.066705e-20)	(4.784373e-01 5.493782e-05 -1.803457e-21)
3.975         	(1.808629e+00 9.040978e-05 8.855048e-21)	(1.330564e+00 3.582559e-05 1.065116e-20)	(4.780655e-01 5.458420e-05 -1.796112e-21)
4             	(1.808076e+00 8.705082e-05 8.846582e-21)	(1.330380e+00 3.281510e-05 1.063542e-20)	(4.776964e-01 5.423572e-05 -1.788837e-21)
4.025         	(1.807502e+00 8.493949e-05 8.838048e-21)	(1.330173e+00 3.107318e-05 1.061965e-20)	(4.773299e-01 5.386631e-05 -1.781601e-21)
4.05          	(1.806907e+00 8.167865e-05 8.829580e-21)	(1.329941e+00 2.819188e-05 1.060400e-20)	(4.769659e-01 5.348677e-05 -1.774419e-21)
4.075         	(1.806295e+00 7.980081e-05 8.821030e-21)	(1.329691e+00 2.669192e-05 1.058832e-20)	(4.766045e-01 5.310889e-05 -1.767289e-21)
4.1           	(1.805662e+00 7.910538e-05 8.812556e-21)	(1.329417e+00 2.635852e-05 1.057277e-20)	(4.762454e-01 5.274686e-05 -1.760212e-21)
4.125         	(1.805016e+00 7.380896e-05 8.803996e-21)	(1.329127e+00 2.143421e-05 1.055719e-20)	(4.758886e-01 5.237476e-05 -1.753197e-21)
4.15          	(1.804350e+00 7.282337e-05 8.795462e-21)	(1.328816e+00 2.084189e-05 1.054169e-20)	(4.755341e-01 5.198148e-05 -1.746229e-21)
4.175         	(1.803668e+00 6.883862e-05 8.786959e-21)	(1.328486e+00 1.726383e-05 1.052628e-20)	(4.751819e-01 5.157479e-05 -1.739319e-21)
4.2           	(1.802972e+00 6.659952e-05 8.778426e-21)	(1.328140e+00 1.544332e-05 1.051089e-20)	(4.748319e-01 5.115621e-05 -1.732464e-21)
4.225         	(1.802258e+00 6.320023e-05 8.769930e-21)	(1.327774e+00 1.247005e-05 1.049559e-20)	(4.744841e-01 5.073019e-05 -1.725657e-21)
4.25          	(1.801531e+00 6.058103e-05 8.761379e-21)	(1.327393e+00 1.027801e-05 1.048028e-20)	(4.741383e-01 5.030301e-05 -1.718906e-21)
4.275         	(1.800790e+00 5.675559e-05 8.752859e-21)	(1.326995e+00 6.894711e-06 1.046507e-20)	(4.737947e-01 4.986088e-05 -1.712212e-21)
4.3           	(1.800035e+00 5.592027e-05 8.744322e-21)	(1.326582e+00 6.488495e-06 1.044989e-20)	(4.734530e-01 4.943177e-05 -1.705569e-21)
4.325         	(1.799264e+00 5.148529e-05 8.735808e-21)	(1.326150e+00 2.491774e-06 1.043478e-20)	(4.731134e-01 4.899351e-05 -1.698974e-21)
4.35          	(1.798481e+00 4.867340e-05 8.727305e-21)	(1.325705e+00 1.426363e-07 1.041973e-20)	(4.727757e-01 4.853077e-05 -1.692429e-21)
4.375         	(1.797688e+00 4.521842e-05 8.718776e-21)	(1.325248e+00 -2.850517e-06 1.040472e-20)	(4.724399e-01 4.806894e-05 -1.685944e-21)
4.4           	(1.796882e+00 4.212050e-05 8.710244e-21)	(1.324776e+00 -5.475085e-06 1.038974e-20)	(4.721059e-01 4.759558e-05 -1.679501e-21)
4.425         	(1.796062e+00 3.896554e-05 8.701730e-21)	(1.324288e+00 -8.151285e-06 1.037485e-20)	(4.717739e-01 4.711683e-05 -1.673116e-21)
4.45          	(1.795234e+00 3.544393e-05 8.693239e-21)	(1.323790e+00 -1.118595e-05 1.036003e-20)	(4.714437e-01 4.662988e-05 -1.666787e-21)
4.475         	(1.794396e+00 3.150776e-05 8.684691e-21)	(1.323281e+00 -1.461472e-05 1.034519e-20)	(4.711153e-01 4.612248e-05 -1.660504e-21)
4.5           	(1.793546e+00 2.966345e-05 8.676310e-21)	(1.322757e+00 -1.594574e-05 1.033059e-20)	(4.707886e-01 4.560919e-05 -1.654276e-21)
4.525         	(1.792687e+00 2.644809e-05 8.667736e-21)	(1.322223e+00 -1.866582e-05 1.031583e-20)	(4.704636e-01 4.511391e-05 -1.648092e-21)
4.55          	(1.791817e+00 2.089852e-05 8.659323e-21)	(1.321676e+00 -2.367981e-05 1.030128e-20)	(4.701404e-01 4.457833e-05 -1.641961e-21)
4.575         	(1.790938e+00 1.825617e-05 8.650824e-21)	(1.321119e+00 -2.577680e-05 1.028669e-20)	(4.698188e-01 4.403297e-05 -1.635865e-21)
4.6           	(1.790055e+00 1.406779e-05 8.642332e-21)	(1.320556e+00 -2.942184e-05 1.027217e-20)	(4.694989e-01 4.348963e-05 -1.629838e-21)
4.625         	(1.789162e+00 1.030197e-05 8.633838e-21)	(1.319981e+00 -3.263768e-05 1.025770e-20)	(4.691806e-01 4.293965e-05 -1.623867e-21)
4.65          	(1.788260e+00 7.820921e-06 8.625433e-21)	(1.319396e+00 -3.456316e-05 1.024337e-20)	(4.688639e-01 4.238408e-05 -1.617933e-21)
4.675         	(1.787353e+00 3.087497e-06 8.616966e-21)	(1.318804e+00 -3.873560e-05 1.022902e-20)	(4.685488e-01 4.182309e-05 -1.612054e-21)
4.7           	(1.786436e+00 -3.385799e-07 8.608584e-21)	(1.318201e+00 -4.158202e-05 1.021481e-20)	(4.682353e-01 4.124344e-05 -1.606222e-21)
4.725         	(1.785514e+00 -4.201371e-06 8.600165e-21)	(1.317591e+00 -4.486273e-05 1.020060e-20)	(4.679233e-01 4.066136e-05 -1.600435e-21)
4.75          	(1.784630e+00 3.256774e-05 8.589597e-21)	(1.317019e+00 -8.017312e-06 1.018403e-20)	(4.676116e-01 4.058505e-05 -1.594430e-21)
4.775         	(1.783708e+00 2.491076e-05 8.581798e-21)	(1.316406e+00 -1.576549e-05 1.017072e-20)	(4.673020e-01 4.067625e-05 -1.588924e-21)
4.8           	(1.782757e+00 3.044475e-05 8.572941e-21)	(1.315763e+00 -1.024194e-05 1.015618e-20)	(4.669943e-01 4.068669e-05 -1.583240e-21)
4.825         	(1.781815e+00 2.955373e-05 8.564545e-21)	(1.315126e+00 -1.109312e-05 1.014222e-20)	(4.666882e-01 4.064684e-05 -1.577677e-21)
4.85          	(1.780858e+00 3.138741e-05 8.555936e-21)	(1.314475e+00 -9.191798e-06 1.012805e-20)	(4.663837e-01 4.057921e-05 -1.572113e-21)
4.875         	(1.779901e+00 3.047291e-05 8.547530e-21)	(1.313820e+00 -1.002387e-05 1.011415e-20)	(4.660806e-01 4.049678e-05 -1.566617e-21)
4.9           	(1.778936e+00 3.191874e-05 8.538970e-21)	(1.313157e+00 -8.476196e-06 1.010011e-20)	(4.657789e-01 4.039494e-05 -1.561137e-21)
4.925         	(1.777971e+00 3.017004e-05 8.530553e-21)	(1.312492e+00 -1.012366e-05 1.008627e-20)	(4.654787e-01 4.029370e-05 -1.555722e-21)
4.95          	(1.776999e+00 3.074512e-05 8.522072e-21)	(1.311819e+00 -9.415460e-06 1.007240e-20)	(4.651799e-01 4.016058e-05 -1.550325e-21)
4.975         	(1.776024e+00 3.022954e-05 8.513681e-21)	(1.311141e+00 -9.796911e-06 1.005866e-20)	(4.648826e-01 4.002645e-05 -1.544977e-21)
5             	(1.775046e+00 2.992047e-05 8.505232e-21)	(1.310460e+00 -9.967158e-06 1.004491e-20)	(4.645866e-01 3.988763e-05 -1.539676e-21)
5.025         	(1.774064e+00 2.896114e-05 8.496901e-21)	(1.309772e+00 -1.078540e-05 1.003132e-20)	(4.642920e-01 3.974654e-05 -1.534416e-21)
5.05          	(1.773082e+00 2.741735e-05 8.488524e-21)	(1.309083e+00 -1.216923e-05 1.001772e-20)	(4.639987e-01 3.958658e-05 -1.529196e-21)
5.075         	(1.772096e+00 2.585915e-05 8.480205e-21)	(1.308389e+00 -1.355650e-05 1.000422e-20)	(4.637069e-01 3.941565e-05 -1.524019e-21)
5.1           	(1.771109e+00 2.550187e-05 8.471818e-21)	(1.307692e+00 -1.374947e-05 9.990694e-21)	(4.634163e-01 3.925134e-05 -1.518876e-21)
5.125         	(1.770119e+00 2.393970e-05 8.463504e-21)	(1.306992e+00 -1.513430e-05 9.977275e-21)	(4.631271e-01 3.907400e-05 -1.513771e-21)
5.15          	(1.769126e+00 2.338934e-05 8.455206e-21)	(1.306287e+00 -1.550031e-05 9.963913e-21)	(4.628392e-01 3.888965e-05 -1.508707e-21)
5.175         	(1.768134e+00 2.099476e-05 8.446981e-21)	(1.305581e+00 -1.768672e-05 9.950676e-21)	(4.625527e-01 3.868148e-05 -1.503696e-21)
5.2           	(1.767137e+00 2.023293e-05 8.438673e-21)	(1.304870e+00 -1.822960e-05 9.937377e-21)	(4.622675e-01 3.846253e-05 -1.498704e-21)
5.225         	(1.766143e+00 1.791868e-05 8.430431e-21)	(1.304159e+00 -2.031313e-05 9.924193e-21)	(4.619836e-01 3.823181e-05 -1.493762e-21)
5.25          	(1.765146e+00 1.609059e-05 8.422224e-21)	(1.303445e+00 -2.190610e-05 9.911082e-21)	(4.617010e-01 3.799668e-05 -1.488858e-21)
5.275         	(1.764149e+00 1.382590e-05 8.414144e-21)	(1.302730e+00 -2.391035e-05 9.898145e-21)	(4.614197e-01 3.773626e-05 -1.484001e-21)
5.3           	(1.763149e+00 1.309137e-05 8.405913e-21)	(1.302009e+00 -2.438926e-05 9.885072e-21)	(4.611397e-01 3.748063e-05 -1.479159e-21)
5.325         	(1.762153e+00 9.513738e-06 8.397769e-21)	(1.301292e+00 -2.768668e-05 9.872137e-21)	(4.608609e-01 3.720041e-05 -1.474368e-21)